 Gaussian 16, Revision C.01,
 Gaussian 16:  ES64L-G16RevC.01  3-Jul-2019

 ----------------------------------------------------------------------
 #p opt=addgic freq wb97xd/cc-pvdz nosymm int=ultrafine scrf=(solvent=C
 arbonTetraChloride)
 ----------------------------------------------------------------------

 ------------------------------------------------
 NM 2D-scan of HBT TD-WB97XD pVDZ in CTC Relaxed.
 ------------------------------------------------
 Symbolic Z-matrix:
 Charge =  0 Multiplicity = 1

 SCF Done:  E(RwB97XD) =  -1028.80276872     A.U. after   16 cycles
 SCF Done:  E(RwB97XD) =  -1028.81078180     A.U. after   13 cycles
 SCF Done:  E(RwB97XD) =  -1028.81062394     A.U. after   13 cycles
 SCF Done:  E(RwB97XD) =  -1028.81173327     A.U. after   12 cycles
 SCF Done:  E(RwB97XD) =  -1028.81175546     A.U. after   10 cycles
 Optimization completed.
    -- Stationary point found.
 Normal termination of Gaussian 16 at Tue Oct 27 21:21:21 2020.

 --------------------------------------------------------------------
 #P Geom=AllCheck Guess=TCheck SCRF=Check GenChk RwB97XD/CC-pVDZ Freq
 --------------------------------------------------------------------

 Structure from the checkpoint file:  "config_9_4.chk"
 ------------------------------------------------
 NM 2D-scan of HBT TD-WB97XD pVDZ in CTC Relaxed.
 ------------------------------------------------
 Charge =  0 Multiplicity = 1

                          Input orientation:
 ---------------------------------------------------------------------
 Center     Atomic      Atomic             Coordinates (Angstroms)
 Number     Number       Type             X           Y           Z
 ---------------------------------------------------------------------
      1          6           0        1.718396   -3.263313   -0.000040
      2          6           0        1.003454   -2.065048   -0.000022
      3          6           0        1.682403   -0.843387   -0.000004
      4          6           0        3.075436   -0.772395    0.000000
      5          6           0        3.782518   -1.966559   -0.000017
      6          6           0        3.110466   -3.197140   -0.000038
      7          1           0        1.207059   -4.226082   -0.000055
      8          1           0        3.576740    0.195569    0.000015
      9          1           0        4.872960   -1.946749   -0.000015
     10          1           0        3.685406   -4.123969   -0.000052
     11          7           0        0.819501    0.224729    0.000005
     12         16           0       -0.747170   -1.780751   -0.000017
     13          6           0       -1.404353    1.049823    0.000006
     14          6           0       -2.813169    0.886801    0.000005
     15          6           0       -0.819934    2.387478    0.000018
     16          6           0       -3.658954    1.971285    0.000028
     17          1           0       -3.229749   -0.124629   -0.000010
     18          6           0       -1.752340    3.481207    0.000046
     19          6           0       -3.108232    3.278634    0.000053
     20          1           0       -4.739714    1.829707    0.000030
     21          1           0       -1.323864    4.484711    0.000058
     22          1           0       -3.779343    4.141067    0.000073
     23          6           0       -0.481189   -0.041381   -0.000004
     24          8           0        0.433453    2.605701   -0.000005
     25          1           0        1.014297    1.288845    0.000024
 ---------------------------------------------------------------------

 SCF Done:  E(RwB97XD) =  -1028.81175546     A.U. after    1 cycles

 Alpha  occ. eigenvalues --  -89.10139 -19.22297 -14.50425 -10.41205 -10.36700
 Alpha  occ. eigenvalues --  -10.36354 -10.35983 -10.33277 -10.32650 -10.32385
 Alpha  occ. eigenvalues --  -10.32242 -10.31345 -10.31093 -10.30754 -10.29246
 Alpha  occ. eigenvalues --  -10.28712  -8.12100  -6.06983  -6.06605  -6.06116
 Alpha  occ. eigenvalues --   -1.13335  -1.10050  -0.98338  -0.95111  -0.92920
 Alpha  occ. eigenvalues --   -0.89238  -0.86250  -0.83993  -0.82092  -0.75809
 Alpha  occ. eigenvalues --   -0.72430  -0.71460  -0.69068  -0.68106  -0.64386
 Alpha  occ. eigenvalues --   -0.60839  -0.59660  -0.56923  -0.55712  -0.55701
 Alpha  occ. eigenvalues --   -0.54854  -0.53596  -0.52765  -0.50742  -0.49934
 Alpha  occ. eigenvalues --   -0.49182  -0.48013  -0.46619  -0.45481  -0.44908
 Alpha  occ. eigenvalues --   -0.44402  -0.43069  -0.41752  -0.40571  -0.36675
 Alpha  occ. eigenvalues --   -0.33385  -0.32784  -0.31597  -0.26840
 Alpha virt. eigenvalues --   -0.01178   0.03902   0.06275   0.06693   0.08843
 Alpha virt. eigenvalues --    0.10960   0.12928   0.14728   0.16031   0.17510
 Alpha virt. eigenvalues --    0.19142   0.20353   0.21356   0.21729   0.22977

 Mulliken charges:
               1
     1  C    0.010591
     2  C   -0.243816
     3  C    0.274092
     4  C   -0.009646
     5  C    0.011888
     6  C    0.001298
     7  H    0.025240
     8  H    0.031314
     9  H    0.026245
    10  H    0.025642
    11  N   -0.165424
    12  S    0.181215
    13  C   -0.134387
    14  C   -0.005047
    15  C    0.116733
    16  C   -0.029521
    17  H    0.002829
    18  C   -0.012126
    19  C    0.025858
    20  H    0.003700
    21  H    0.003625
    22  H    0.013790
    23  C    0.073112
    24  O   -0.394971
    25  H    0.167765
 Sum of Mulliken charges =  -0.00000

 Dipole moment (field-independent basis, Debye):
    X=              1.4052    Y=             -4.7441    Z=              0.0000  Tot=              4.9478
 Quadrupole moment (field-independent basis, Debye-Ang):
   XX=            -82.5594   YY=            -93.5340   ZZ=           -104.0605
   XY=             -7.0766   XZ=             -0.0000   YZ=              0.0004

  Exact polarizability:     284.970     -82.192     280.123      -0.001       0.003      62.997
 Approx polarizability:     266.637     -30.924     255.227      -0.001       0.002      82.112

                      1                      2                      3
                      A                      A                      A
 Frequencies --     54.5634                70.6854               108.4647
 Red. masses --      5.2788                 5.5298                 5.5792
 Frc consts  --      0.0093                 0.0163                 0.0387
 IR Inten    --      0.4071                 1.8738                 6.8933

                      4                      5                      6
                      A                      A                      A
 Frequencies --    144.3055               199.8512               238.4767
 Red. masses --      5.1922                 6.0235                 6.1944
 Frc consts  --      0.0637                 0.1417                 0.2076
 IR Inten    --      1.0236                 0.0284                 0.6810

                      7                      8                      9
                      A                      A                      A
 Frequencies --    263.3561               305.2780               311.3323
 Red. masses --      7.1223                 5.4248                 5.3447
 Frc consts  --      0.2910                 0.2979                 0.3052
 IR Inten    --     18.9694                20.2458                 0.9274

                     10                     11                     12
                      A                      A                      A
 Frequencies --    409.1913               431.8079               451.9623
 Red. masses --     11.0836                 3.2065                 3.6222
 Frc consts  --      1.0934                 0.3523                 0.4359
 IR Inten    --      3.7010                 0.7604                10.4016

                     13                     14                     15
                      A                      A                      A
 Frequencies --    511.9814               534.4752               535.1264
 Red. masses --      8.6827                 4.5558                 2.9799
 Frc consts  --      1.3410                 0.7668                 0.5028
 IR Inten    --      4.1975                19.4759                 5.0953

                     16                     17                     18
                      A                      A                      A
 Frequencies --    548.9254               564.0407               583.9359
 Red. masses --      8.0372                 3.6921                 6.6552
 Frc consts  --      1.4269                 0.6921                 1.3370
 IR Inten    --     11.7771                 0.0412                37.4748

                     19                     20                     21
                      A                      A                      A
 Frequencies --    630.9931               643.2587               709.7292
 Red. masses --      5.3401                 6.3397                 7.0103
 Frc consts  --      1.2527                 1.5456                 2.0805
 IR Inten    --      3.0443                 0.0087                50.7557

                     22                     23                     24
                      A                      A                      A
 Frequencies --    717.3546               751.5136               763.6786
 Red. masses --      6.3539                 2.5453                 1.4767
 Frc consts  --      1.9265                 0.8470                 0.5074
 IR Inten    --     27.0657                11.4468                49.2551

                     25                     26                     27
                      A                      A                      A
 Frequencies --    777.3034               778.4066               821.2133
 Red. masses --      2.4383                 1.5962                 3.9289
 Frc consts  --      0.8680                 0.5698                 1.5611
 IR Inten    --     21.7824                39.3928                21.3645

                     28                     29                     30
                      A                      A                      A
 Frequencies --    853.9671               878.9716               883.2516
 Red. masses --      4.9669                 1.7976                 1.3896
 Frc consts  --      2.1341                 0.8183                 0.6387
 IR Inten    --     14.0008                 8.9896                 0.1505

                     31                     32                     33
                      A                      A                      A
 Frequencies --    950.4637               968.6973               972.8047
 Red. masses --      5.5008                 1.3287                 1.3580
 Frc consts  --      2.9278                 0.7346                 0.7572
 IR Inten    --     35.4680                 0.4069                 0.9952

                     34                     35                     36
                      A                      A                      A
 Frequencies --   1015.2476              1015.5772              1036.8329
 Red. masses --      1.3016                 1.3037                 1.0822
 Frc consts  --      0.7904                 0.7923                 0.6855
 IR Inten    --      0.2686                 0.1079                73.5517

                     37                     38                     39
                      A                      A                      A
 Frequencies --   1043.3984              1055.8639              1063.1881
 Red. masses --      2.4995                 2.1717                 3.0234
 Frc consts  --      1.6033                 1.4265                 2.0136
 IR Inten    --     17.2121                 9.1633                21.2690

                     40                     41                     42
                      A                      A                      A
 Frequencies --   1110.3952              1156.4499              1159.6237
 Red. masses --      2.9102                 1.3781                 1.2364
 Frc consts  --      2.1141                 1.0859                 0.9796
 IR Inten    --     47.4284                10.7338                25.1319

                     43                     44                     45
                      A                      A                      A
 Frequencies --   1182.1625              1189.7836              1260.6944
 Red. masses --      1.1417                 1.2090                 1.8267
 Frc consts  --      0.9401                 1.0084                 1.7106
 IR Inten    --     20.4853                 3.4962                 7.3773

                     46                     47                     48
                      A                      A                      A
 Frequencies --   1290.4276              1328.1608              1368.3982
 Red. masses --      1.5231                 2.9778                 3.6388
 Frc consts  --      1.4943                 3.0949                 4.0145
 IR Inten    --     20.5654               139.7441                36.2300

                     49                     50                     51
                      A                      A                      A
 Frequencies --   1380.8172              1392.4374              1417.4763
 Red. masses --      5.3950                 5.1508                 2.5430
 Frc consts  --      6.0606                 5.8840                 3.0104
 IR Inten    --     69.6503                10.7639                10.3690

                     52                     53                     54
                      A                      A                      A
 Frequencies --   1494.7182              1506.1832              1524.9128
 Red. masses --      2.6846                 2.7408                 3.4246
 Frc consts  --      3.5338                 3.6634                 4.6919
 IR Inten    --     19.0436               104.7699               139.4592

                     55                     56                     57
                      A                      A                      A
 Frequencies --   1579.2667              1603.6594              1616.4173
 Red. masses --      4.9558                 6.2258                 4.3245
 Frc consts  --      7.2824                 9.4335                 6.6572
 IR Inten    --   1091.6645               241.2210               774.7451

                     58                     59                     60
                      A                      A                      A
 Frequencies --   1667.5143              1683.0776              1713.4500
 Red. masses --      7.0461                 6.9438                 5.8843
 Frc consts  --     11.5435                11.5892                10.1786
 IR Inten    --     64.0210                76.8404               128.7975

                     61                     62                     63
                      A                      A                      A
 Frequencies --   2523.2443              3180.4762              3193.9975
 Red. masses --      1.1215                 1.0896                 1.0882
 Frc consts  --      4.2069                 6.4940                 6.5410
 IR Inten    --    630.4079                 4.8036                13.6048

                     64                     65                     66
                      A                      A                      A
 Frequencies --   3216.7315              3222.1710              3226.9917
 Red. masses --      1.0864                 1.0942                 1.0908
 Frc consts  --      6.6234                 6.6933                 6.6923
 IR Inten    --      1.6300                19.1693                 2.7326

                     67                     68                     69
                      A                      A                      A
 Frequencies --   3231.8278              3236.3145              3242.6069
 Red. masses --      1.0973                 1.0962                 1.1000
 Frc consts  --      6.7528                 6.7647                 6.8144
 IR Inten    --     20.1285                 5.6658                11.2400

 - Thermochemistry -
 -------------------
 Temperature   298.150 Kelvin.  Pressure   1.00000 Atm.
 Atom     1 has atomic number  6 and mass  12.00000

 Molecular mass:   227.04049 amu.
 Principal axes and moments of inertia in atomic units:
                           1         2         3
     Eigenvalues --  1318.038116275.648427593.68653
           X           -0.70458   0.70962   0.00000
           Y            0.70962   0.70458  -0.00001
           Z            0.00001   0.00001   1.00000
 This molecule is an asymmetric top.
 Rotational symmetry number  1.
 Warning -- assumption of classical behavior for rotation
           may cause significant error
 Rotational temperatures (Kelvin)      0.06571     0.01380     0.01141
 Rotational constants (GHZ):           1.36926     0.28758     0.23766
 Zero-point vibrational energy     493458.8 (Joules/Mol)
                                  117.93948 (Kcal/Mol)
 Warning -- explicit consideration of  18 degrees of freedom as
           vibrations may cause significant error
 Vibrational temperatures:     78.50   101.70   156.06   207.62   287.54
          (Kelvin)            343.11   378.91   439.23   447.94   588.74
                              621.28   650.27   736.63   768.99   769.93
                              789.78   811.53   840.15   907.86   925.51
                             1021.14  1032.11  1081.26  1098.76  1118.37
                             1119.95  1181.54  1228.67  1264.64  1270.80
                             1367.51  1393.74  1399.65  1460.71  1461.19
                             1491.77  1501.22  1519.15  1529.69  1597.61
                             1663.87  1668.44  1700.87  1711.83  1813.86
                             1856.64  1910.93  1968.82  1986.69  2003.41
                             2039.43  2150.57  2167.06  2194.01  2272.21
                             2307.31  2325.66  2399.18  2421.57  2465.27
                             3630.39  4576.00  4595.45  4628.16  4635.99
                             4642.92  4649.88  4656.33  4665.39

 Zero-point correction=                           0.187949 (Hartree/Particle)
 Thermal correction to Energy=                    0.199735
 Thermal correction to Enthalpy=                  0.200679
 Thermal correction to Gibbs Free Energy=         0.149382
 Sum of electronic and zero-point Energies=          -1028.623807
 Sum of electronic and thermal Energies=             -1028.612021
 Sum of electronic and thermal Enthalpies=           -1028.611076
 Sum of electronic and thermal Free Energies=        -1028.662374

                     E (Thermal)             CV                S
                      KCal/Mol        Cal/Mol-Kelvin    Cal/Mol-Kelvin
 Total                  125.336             47.938            107.964
 Electronic               0.000              0.000              0.000
 Translational            0.889              2.981             42.162
 Rotational               0.889              2.981             32.507
 Vibrational            123.558             41.976             33.295
 Vibration     1          0.596              1.976              4.645
 Vibration     2          0.598              1.968              4.134
 Vibration     3          0.606              1.942              3.296
 Vibration     4          0.616              1.909              2.746
 Vibration     5          0.638              1.840              2.134
 Vibration     6          0.656              1.782              1.814
 Vibration     7          0.670              1.740              1.639
 Vibration     8          0.696              1.664              1.388
 Vibration     9          0.700              1.652              1.355
 Vibration    10          0.774              1.450              0.929
 Vibration    11          0.793              1.401              0.853
 Vibration    12          0.811              1.357              0.790
 Vibration    13          0.867              1.223              0.629
 Vibration    14          0.889              1.174              0.577
 Vibration    15          0.890              1.172              0.576
 Vibration    16          0.904              1.142              0.546
 Vibration    17          0.920              1.109              0.516
 Vibration    18          0.941              1.066              0.478

                           ! Non-Optimized Parameters !
 Normal termination of Gaussian 16 at Tue Oct 27 21:27:40 2020.
