 Gaussian 16, Revision C.01,
 Gaussian 16:  ES64L-G16RevC.01  3-Jul-2019

 ----------------------------------------------------------------------
 #p opt=addgic freq wb97xd/cc-pvdz nosymm int=ultrafine scrf=(solvent=C
 arbonTetraChloride)
 ----------------------------------------------------------------------

 ------------------------------------------------
 NM 2D-scan of HBT TD-WB97XD pVDZ in CTC Relaxed.
 ------------------------------------------------
 Symbolic Z-matrix:
 Charge =  0 Multiplicity = 1

 SCF Done:  E(RwB97XD) =  -1028.72937310     A.U. after   16 cycles
 SCF Done:  E(RwB97XD) =  -1028.79208509     A.U. after   14 cycles
 SCF Done:  E(RwB97XD) =  -1028.80058180     A.U. after   13 cycles
 SCF Done:  E(RwB97XD) =  -1028.80181262     A.U. after   13 cycles
 SCF Done:  E(RwB97XD) =  -1028.80215166     A.U. after   11 cycles
 SCF Done:  E(RwB97XD) =  -1028.80221668     A.U. after   10 cycles
 Optimization completed.
    -- Stationary point found.
 Normal termination of Gaussian 16 at Tue Oct 27 21:37:45 2020.

 --------------------------------------------------------------------
 #P Geom=AllCheck Guess=TCheck SCRF=Check GenChk RwB97XD/CC-pVDZ Freq
 --------------------------------------------------------------------

 Structure from the checkpoint file:  "config_11_5.chk"
 ------------------------------------------------
 NM 2D-scan of HBT TD-WB97XD pVDZ in CTC Relaxed.
 ------------------------------------------------
 Charge =  0 Multiplicity = 1

                          Input orientation:
 ---------------------------------------------------------------------
 Center     Atomic      Atomic             Coordinates (Angstroms)
 Number     Number       Type             X           Y           Z
 ---------------------------------------------------------------------
      1          6           0        1.716051   -3.273844   -0.000021
      2          6           0        1.013866   -2.071507   -0.000009
      3          6           0        1.704235   -0.871659   -0.000010
      4          6           0        3.095626   -0.799505   -0.000016
      5          6           0        3.792492   -2.002237   -0.000025
      6          6           0        3.109431   -3.223665   -0.000029
      7          1           0        1.194555   -4.230775   -0.000024
      8          1           0        3.606185    0.163934   -0.000015
      9          1           0        4.883004   -1.991138   -0.000030
     10          1           0        3.674057   -4.156508   -0.000039
     11          7           0        0.829194    0.186255   -0.000013
     12         16           0       -0.740570   -1.754519    0.000005
     13          6           0       -1.410779    1.068011    0.000004
     14          6           0       -2.817733    0.893203   -0.000008
     15          6           0       -0.822918    2.415769    0.000032
     16          6           0       -3.682303    1.964876    0.000016
     17          1           0       -3.223459   -0.122996   -0.000040
     18          6           0       -1.797747    3.499601    0.000067
     19          6           0       -3.150485    3.281316    0.000058
     20          1           0       -4.760487    1.803666    0.000004
     21          1           0       -1.388989    4.511862    0.000097
     22          1           0       -3.835752    4.132909    0.000083
     23          6           0       -0.493136   -0.021270   -0.000004
     24          8           0        0.407505    2.617542    0.000025
     25          1           0        1.226339    1.102772   -0.000034
 ---------------------------------------------------------------------

 SCF Done:  E(RwB97XD) =  -1028.80221668     A.U. after    1 cycles

 Alpha  occ. eigenvalues --  -89.10194 -19.21411 -14.51354 -10.41690 -10.36808
 Alpha  occ. eigenvalues --  -10.36175 -10.35974 -10.33407 -10.32970 -10.32625
 Alpha  occ. eigenvalues --  -10.32333 -10.31165 -10.30800 -10.30610 -10.29071
 Alpha  occ. eigenvalues --  -10.28514  -8.12170  -6.07064  -6.06670  -6.06173
 Alpha  occ. eigenvalues --   -1.13470  -1.10198  -0.98638  -0.95072  -0.93191
 Alpha  occ. eigenvalues --   -0.89317  -0.86485  -0.84070  -0.81674  -0.75715
 Alpha  occ. eigenvalues --   -0.73727  -0.71653  -0.69447  -0.67846  -0.64564
 Alpha  occ. eigenvalues --   -0.60893  -0.59805  -0.56680  -0.56043  -0.55932
 Alpha  occ. eigenvalues --   -0.55013  -0.53589  -0.52940  -0.50539  -0.49550
 Alpha  occ. eigenvalues --   -0.49046  -0.48187  -0.46699  -0.45635  -0.44773
 Alpha  occ. eigenvalues --   -0.44531  -0.42934  -0.41748  -0.40454  -0.36879
 Alpha  occ. eigenvalues --   -0.33607  -0.31681  -0.31591  -0.26261
 Alpha virt. eigenvalues --   -0.01313   0.03730   0.06125   0.06717   0.09403
 Alpha virt. eigenvalues --    0.11121   0.12531   0.14622   0.15948   0.17179
 Alpha virt. eigenvalues --    0.18809   0.19928   0.21173   0.21640   0.23019

 Mulliken charges:
               1
     1  C    0.009994
     2  C   -0.250379
     3  C    0.244556
     4  C   -0.010752
     5  C    0.013164
     6  C    0.002087
     7  H    0.025519
     8  H    0.032987
     9  H    0.027688
    10  H    0.026176
    11  N   -0.090185
    12  S    0.179104
    13  C   -0.132655
    14  C   -0.003930
    15  C    0.114220
    16  C   -0.034880
    17  H    0.001541
    18  C   -0.029830
    19  C    0.028258
    20  H    0.002746
    21  H    0.001039
    22  H    0.013288
    23  C    0.090995
    24  O   -0.381144
    25  H    0.120394
 Sum of Mulliken charges =  -0.00000

 Dipole moment (field-independent basis, Debye):
    X=              1.9582    Y=             -5.1071    Z=             -0.0001  Tot=              5.4696
 Quadrupole moment (field-independent basis, Debye-Ang):
   XX=            -81.9876   YY=            -94.5795   ZZ=           -104.0437
   XY=             -6.8503   XZ=             -0.0002   YZ=              0.0001

  Exact polarizability:     289.605     -88.750     287.600      -0.001       0.003      62.998
 Approx polarizability:     268.222     -34.896     256.076      -0.001       0.002      82.020

                      1                      2                      3
                      A                      A                      A
 Frequencies --     14.5401                64.9416               110.1882
 Red. masses --      4.9306                 6.4838                 5.6578
 Frc consts  --      0.0006                 0.0161                 0.0405
 IR Inten    --      0.9156                 2.2047                 0.7309

                      4                      5                      6
                      A                      A                      A
 Frequencies --    120.8555               192.6198               232.1394
 Red. masses --      5.1282                 5.7970                 5.9083
 Frc consts  --      0.0441                 0.1267                 0.1876
 IR Inten    --      0.3524                 0.0236                 1.0227

                      7                      8                      9
                      A                      A                      A
 Frequencies --    265.6556               305.5634               324.3335
 Red. masses --      7.4103                 5.1632                 6.5827
 Frc consts  --      0.3081                 0.2840                 0.4080
 IR Inten    --      3.8185                 2.3993                 5.2176

                     10                     11                     12
                      A                      A                      A
 Frequencies --    389.9188               427.5592               444.0952
 Red. masses --      9.4017                 3.2712                 3.5506
 Frc consts  --      0.8422                 0.3523                 0.4126
 IR Inten    --      5.9248                 1.2578                10.7568

                     13                     14                     15
                      A                      A                      A
 Frequencies --    502.8766               525.7762               537.8839
 Red. masses --      7.9895                 2.7088                 8.8539
 Frc consts  --      1.1904                 0.4412                 1.5093
 IR Inten    --      8.7975                10.6609                 9.8904

                     16                     17                     18
                      A                      A                      A
 Frequencies --    555.5755               561.3640               584.9784
 Red. masses --      6.6429                 3.7164                 7.2285
 Frc consts  --      1.2081                 0.6900                 1.4574
 IR Inten    --      1.0586                 0.1544                38.3889

                     19                     20                     21
                      A                      A                      A
 Frequencies --    601.4476               655.6574               659.9634
 Red. masses --      1.5022                 2.5603                 5.8375
 Frc consts  --      0.3202                 0.6485                 1.4980
 IR Inten    --     30.4541                24.7363                 7.1165

                     22                     23                     24
                      A                      A                      A
 Frequencies --    699.5573               740.2521               751.1078
 Red. masses --      6.1296                 7.9564                 2.7322
 Frc consts  --      1.7674                 2.5688                 0.9082
 IR Inten    --     37.5757                50.4506                 8.3562

                     25                     26                     27
                      A                      A                      A
 Frequencies --    760.9341               776.5107               780.5006
 Red. masses --      1.4174                 1.5538                 2.4126
 Frc consts  --      0.4835                 0.5520                 0.8659
 IR Inten    --     48.3530                37.1151                40.8915

                     28                     29                     30
                      A                      A                      A
 Frequencies --    829.9778               877.1590               882.0194
 Red. masses --      6.1862                 1.9750                 1.3763
 Frc consts  --      2.5108                 0.8953                 0.6309
 IR Inten    --     23.2631                15.4587                 1.3648

                     31                     32                     33
                      A                      A                      A
 Frequencies --    899.5323               960.0430               968.5157
 Red. masses --      4.8529                 4.0504                 1.3235
 Frc consts  --      2.3136                 2.1995                 0.7315
 IR Inten    --      1.4802                41.6968                 0.2151

                     34                     35                     36
                      A                      A                      A
 Frequencies --    972.1624              1015.1528              1016.1806
 Red. masses --      1.3566                 1.3021                 1.3037
 Frc consts  --      0.7554                 0.7906                 0.7932
 IR Inten    --      1.4519                 0.0078                 0.3495

                     37                     38                     39
                      A                      A                      A
 Frequencies --   1044.4861              1057.9843              1082.3671
 Red. masses --      2.1320                 2.1579                 3.1794
 Frc consts  --      1.3704                 1.4231                 2.1946
 IR Inten    --      9.0071                11.7338                38.2314

                     40                     41                     42
                      A                      A                      A
 Frequencies --   1107.6038              1155.6239              1157.4017
 Red. masses --      2.2804                 1.3296                 1.2163
 Frc consts  --      1.6483                 1.0462                 0.9599
 IR Inten    --     88.0428                 5.8823                60.8646

                     43                     44                     45
                      A                      A                      A
 Frequencies --   1182.2784              1190.4799              1244.8190
 Red. masses --      1.1443                 1.1927                 2.0369
 Frc consts  --      0.9424                 0.9959                 1.8596
 IR Inten    --     21.4240                10.0117                11.0380

                     46                     47                     48
                      A                      A                      A
 Frequencies --   1290.9383              1298.4819              1369.1122
 Red. masses --      1.8933                 1.9424                 2.5966
 Frc consts  --      1.8590                 1.9296                 2.8678
 IR Inten    --     77.8121               132.7836                76.6712

                     49                     50                     51
                      A                      A                      A
 Frequencies --   1378.3849              1393.9684              1416.9533
 Red. masses --      7.1917                 6.2976                 2.2681
 Frc consts  --      8.0505                 7.2100                 2.6831
 IR Inten    --     27.5433               101.1897                17.5439

                     52                     53                     54
                      A                      A                      A
 Frequencies --   1489.4572              1504.6085              1531.9930
 Red. masses --      2.8180                 3.0191                 2.9742
 Frc consts  --      3.6834                 4.0270                 4.1127
 IR Inten    --    206.9559               678.3591               263.1398

                     55                     56                     57
                      A                      A                      A
 Frequencies --   1553.1205              1596.1906              1644.7193
 Red. masses --      4.6841                 6.6611                 6.6894
 Frc consts  --      6.6572                 9.9993                10.6616
 IR Inten    --    983.0360               160.4638                91.0580

                     58                     59                     60
                      A                      A                      A
 Frequencies --   1681.9910              1696.1790              1721.9831
 Red. masses --      7.1846                 7.8152                 7.7395
 Frc consts  --     11.9757                13.2474                13.5214
 IR Inten    --     73.1411                97.8742               338.4756

                     61                     62                     63
                      A                      A                      A
 Frequencies --   3176.2754              3190.5184              3216.8073
 Red. masses --      1.0896                 1.0878                 1.0944
 Frc consts  --      6.4768                 6.5241                 6.6725
 IR Inten    --      5.7606                14.6249                26.0234

                     64                     65                     66
                      A                      A                      A
 Frequencies --   3217.9151              3228.6777              3230.9002
 Red. masses --      1.0866                 1.0908                 1.0967
 Frc consts  --      6.6295                 6.6993                 6.7452
 IR Inten    --      2.1483                 1.8914                19.8799

                     67                     68                     69
                      A                      A                      A
 Frequencies --   3236.8409              3244.3111              3704.7478
 Red. masses --      1.0966                 1.0996                 1.0813
 Frc consts  --      6.7691                 6.8191                 8.7440
 IR Inten    --      3.7703                12.4101               171.5997

 - Thermochemistry -
 -------------------
 Temperature   298.150 Kelvin.  Pressure   1.00000 Atm.
 Atom     1 has atomic number  6 and mass  12.00000

 Molecular mass:   227.04049 amu.
 Principal axes and moments of inertia in atomic units:
                           1         2         3
     Eigenvalues --  1303.744776360.709167664.45392
           X           -0.70581   0.70840   0.00000
           Y            0.70840   0.70581  -0.00001
           Z            0.00001   0.00000   1.00000
 This molecule is an asymmetric top.
 Rotational symmetry number  1.
 Warning -- assumption of classical behavior for rotation
           may cause significant error
 Rotational temperatures (Kelvin)      0.06643     0.01362     0.01130
 Rotational constants (GHZ):           1.38427     0.28373     0.23547
 Zero-point vibrational energy     497919.6 (Joules/Mol)
                                  119.00564 (Kcal/Mol)
 Warning -- explicit consideration of  19 degrees of freedom as
           vibrations may cause significant error
 Vibrational temperatures:     20.92    93.44   158.54   173.88   277.14
          (Kelvin)            334.00   382.22   439.64   466.64   561.01
                              615.16   638.95   723.53   756.47   773.89
                              799.35   807.68   841.65   865.35   943.34
                              949.54  1006.51  1065.06  1080.68  1094.81
                             1117.23  1122.97  1194.15  1262.04  1269.03
                             1294.23  1381.29  1393.48  1398.72  1460.58
                             1462.06  1502.78  1522.20  1557.28  1593.59
                             1662.69  1665.24  1701.03  1712.83  1791.02
                             1857.37  1868.23  1969.85  1983.19  2005.61
                             2038.68  2143.00  2164.80  2204.20  2234.59
                             2296.56  2366.38  2420.01  2440.42  2477.55
                             4569.95  4590.44  4628.27  4629.86  4645.35
                             4648.54  4657.09  4667.84  5330.31

 Zero-point correction=                           0.189648 (Hartree/Particle)
 Thermal correction to Energy=                    0.201699
 Thermal correction to Enthalpy=                  0.202644
 Thermal correction to Gibbs Free Energy=         0.149666
 Sum of electronic and zero-point Energies=          -1028.612569
 Sum of electronic and thermal Energies=             -1028.600517
 Sum of electronic and thermal Enthalpies=           -1028.599573
 Sum of electronic and thermal Free Energies=        -1028.652551

                     E (Thermal)             CV                S
                      KCal/Mol        Cal/Mol-Kelvin    Cal/Mol-Kelvin
 Total                  126.568             48.556            111.501
 Electronic               0.000              0.000              0.000
 Translational            0.889              2.981             42.162
 Rotational               0.889              2.981             32.519
 Vibrational            124.791             42.595             36.820
 Vibration     1          0.593              1.986              7.267
 Vibration     2          0.597              1.971              4.301
 Vibration     3          0.606              1.941              3.266
 Vibration     4          0.609              1.932              3.087
 Vibration     5          0.635              1.850              2.202
 Vibration     6          0.653              1.792              1.862
 Vibration     7          0.671              1.736              1.624
 Vibration     8          0.696              1.663              1.386
 Vibration     9          0.709              1.627              1.288
 Vibration    10          0.758              1.492              1.000
 Vibration    11          0.789              1.410              0.867
 Vibration    12          0.804              1.374              0.814
 Vibration    13          0.858              1.244              0.651
 Vibration    14          0.881              1.193              0.597
 Vibration    15          0.893              1.166              0.570
 Vibration    16          0.911              1.127              0.533
 Vibration    17          0.917              1.115              0.521
 Vibration    18          0.942              1.064              0.476
 Vibration    19          0.960              1.029              0.447

 Optimization completed.
    -- Stationary point found.
 Normal termination of Gaussian 16 at Tue Oct 27 21:43:46 2020.
