 Gaussian 16, Revision C.01,
 Gaussian 16:  ES64L-G16RevC.01  3-Jul-2019

 ----------------------------------------------------------------------
 #p opt=addgic freq wb97xd/cc-pvdz nosymm int=ultrafine scrf=(solvent=C
 arbonTetraChloride)
 ----------------------------------------------------------------------

 ------------------------------------------------
 NM 2D-scan of HBT TD-WB97XD pVDZ in CTC Relaxed.
 ------------------------------------------------
 Symbolic Z-matrix:
 Charge =  0 Multiplicity = 1

 SCF Done:  E(RwB97XD) =  -1028.80388262     A.U. after   15 cycles
 SCF Done:  E(RwB97XD) =  -1028.81084889     A.U. after   13 cycles
 SCF Done:  E(RwB97XD) =  -1028.81223086     A.U. after   12 cycles
 SCF Done:  E(RwB97XD) =  -1028.81271872     A.U. after   12 cycles
 SCF Done:  E(RwB97XD) =  -1028.81287766     A.U. after   12 cycles
 SCF Done:  E(RwB97XD) =  -1028.81292685     A.U. after   11 cycles
 SCF Done:  E(RwB97XD) =  -1028.81293067     A.U. after    9 cycles
 Optimization completed.
    -- Stationary point found.
 Normal termination of Gaussian 16 at Wed Oct 28 01:23:54 2020.

 --------------------------------------------------------------------
 #P Geom=AllCheck Guess=TCheck SCRF=Check GenChk RwB97XD/CC-pVDZ Freq
 --------------------------------------------------------------------

 Structure from the checkpoint file:  "config_6_17.chk"
 ------------------------------------------------
 NM 2D-scan of HBT TD-WB97XD pVDZ in CTC Relaxed.
 ------------------------------------------------
 Charge =  0 Multiplicity = 1

                          Input orientation:
 ---------------------------------------------------------------------
 Center     Atomic      Atomic             Coordinates (Angstroms)
 Number     Number       Type             X           Y           Z
 ---------------------------------------------------------------------
      1          6           0        1.529634   -3.232805   -0.000065
      2          6           0        1.013724   -1.943486   -0.000048
      3          6           0        1.800168   -0.782583   -0.000008
      4          6           0        3.195438   -0.941231    0.000007
      5          6           0        3.722623   -2.235948   -0.000009
      6          6           0        2.906710   -3.376059   -0.000043
      7          1           0        0.862810   -4.095428   -0.000091
      8          1           0        3.856367   -0.073791    0.000035
      9          1           0        4.806736   -2.359349    0.000008
     10          1           0        3.353503   -4.370884   -0.000051
     11          7           0        0.999917    0.371331    0.000015
     12         16           0       -0.681075   -1.560969   -0.000059
     13          6           0       -1.322472    1.108220    0.000041
     14          6           0       -2.671983    0.743205    0.000072
     15          6           0       -0.887060    2.455830    0.000021
     16          6           0       -3.659726    1.711095    0.000064
     17          1           0       -2.948482   -0.313800    0.000103
     18          6           0       -1.923635    3.434568   -0.000002
     19          6           0       -3.264864    3.057043    0.000016
     20          1           0       -4.713757    1.433685    0.000088
     21          1           0       -1.649342    4.490730   -0.000032
     22          1           0       -4.030466    3.836337   -0.000003
     23          6           0       -0.291598    0.104476    0.000008
     24          8           0        0.397053    2.695097    0.000019
     25          1           0        0.943354    1.693314    0.000025
 ---------------------------------------------------------------------

 SCF Done:  E(RwB97XD) =  -1028.81293067     A.U. after    1 cycles

 Alpha  occ. eigenvalues --  -89.08889 -19.25283 -14.48453 -10.39711 -10.36829
 Alpha  occ. eigenvalues --  -10.36160 -10.34935 -10.32489 -10.32467 -10.31978
 Alpha  occ. eigenvalues --  -10.31865 -10.31590 -10.31279 -10.31083 -10.29876
 Alpha  occ. eigenvalues --  -10.29846  -8.11106  -6.05944  -6.05579  -6.05155
 Alpha  occ. eigenvalues --   -1.14412  -1.09492  -0.97721  -0.96130  -0.92634
 Alpha  occ. eigenvalues --   -0.88800  -0.86036  -0.84016  -0.82975  -0.75630
 Alpha  occ. eigenvalues --   -0.71702  -0.71039  -0.69143  -0.67868  -0.63554
 Alpha  occ. eigenvalues --   -0.60932  -0.59362  -0.57934  -0.56149  -0.54868
 Alpha  occ. eigenvalues --   -0.54596  -0.53619  -0.52783  -0.50955  -0.49859
 Alpha  occ. eigenvalues --   -0.49446  -0.46806  -0.46400  -0.45269  -0.45224
 Alpha  occ. eigenvalues --   -0.44346  -0.42997  -0.42401  -0.40288  -0.36355
 Alpha  occ. eigenvalues --   -0.35492  -0.32589  -0.31582  -0.28409
 Alpha virt. eigenvalues --   -0.00690   0.04481   0.06465   0.07761   0.07827
 Alpha virt. eigenvalues --    0.11140   0.14894   0.15073   0.17318   0.17916
 Alpha virt. eigenvalues --    0.19091   0.20869   0.21665   0.22222   0.22758

 Mulliken charges:
               1
     1  C    0.021720
     2  C   -0.219675
     3  C    0.248945
     4  C   -0.018963
     5  C    0.002980
     6  C    0.006092
     7  H    0.020353
     8  H    0.025874
     9  H    0.023460
    10  H    0.023300
    11  N   -0.327018
    12  S    0.167847
    13  C   -0.065476
    14  C   -0.031461
    15  C    0.107966
    16  C   -0.014271
    17  H    0.018813
    18  C   -0.019289
    19  C    0.022169
    20  H    0.006641
    21  H    0.011550
    22  H    0.017381
    23  C    0.081165
    24  O   -0.313672
    25  H    0.203569
 Sum of Mulliken charges =  -0.00000

 Dipole moment (field-independent basis, Debye):
    X=              0.3796    Y=             -3.8511    Z=             -0.0000  Tot=              3.8697
 Quadrupole moment (field-independent basis, Debye-Ang):
   XX=            -82.5538   YY=            -91.8943   ZZ=           -103.9069
   XY=             -7.2215   XZ=              0.0000   YZ=              0.0000

  Exact polarizability:     275.958     -71.812     258.694      -0.001       0.001      62.785
 Approx polarizability:     262.675     -25.155     244.342       0.000       0.001      82.125

 ******    2 imaginary frequencies (negative Signs) ******

                      1                      2                      3
                      A                      A                      A
 Frequencies --   -551.8710               -28.0017                65.4285
 Red. masses --      1.3543                 5.1874                 6.1961
 Frc consts  --      0.2430                 0.0024                 0.0156
 IR Inten    --   1400.3092                 0.0726                 1.1799

                      4                      5                      6
                      A                      A                      A
 Frequencies --    151.4657               160.8215               199.1159
 Red. masses --      5.0686                 5.4372                 6.3436
 Frc consts  --      0.0685                 0.0829                 0.1482
 IR Inten    --      0.6381                12.9955                 0.3456

                      7                      8                      9
                      A                      A                      A
 Frequencies --    242.4840               286.3455               327.9539
 Red. masses --      5.6159                 6.9144                 5.1770
 Frc consts  --      0.1946                 0.3340                 0.3281
 IR Inten    --      0.1602                11.9446                 0.1067

                     10                     11                     12
                      A                      A                      A
 Frequencies --    405.1210               434.2981               436.4857
 Red. masses --      5.5226                 3.0913                11.2751
 Frc consts  --      0.5340                 0.3435                 1.2656
 IR Inten    --     43.1155                 1.1853                11.0710

                     13                     14                     15
                      A                      A                      A
 Frequencies --    459.3832               520.1609               536.9863
 Red. masses --      3.5205                 8.5744                 3.3654
 Frc consts  --      0.4377                 1.3669                 0.5718
 IR Inten    --      8.9545                 5.7494                 3.4600

                     16                     17                     18
                      A                      A                      A
 Frequencies --    567.0206               575.1477               580.9879
 Red. masses --      7.6700                 3.7137                 7.9429
 Frc consts  --      1.4529                 0.7238                 1.5797
 IR Inten    --     12.6909                 0.0968                 1.3094

                     19                     20                     21
                      A                      A                      A
 Frequencies --    648.4640               681.9062               710.8844
 Red. masses --      6.4402                 6.0341                 6.1751
 Frc consts  --      1.5956                 1.6532                 1.8386
 IR Inten    --      0.0024                93.1170               168.0345

                     22                     23                     24
                      A                      A                      A
 Frequencies --    755.4203               759.8789               768.4747
 Red. masses --      2.1524                 5.8179                 1.7922
 Frc consts  --      0.7237                 1.9793                 0.6236
 IR Inten    --     24.3614               104.0104                26.7516

                     25                     26                     27
                      A                      A                      A
 Frequencies --    773.4281               782.3437               784.3007
 Red. masses --      2.0550                 1.8270                 7.8938
 Frc consts  --      0.7243                 0.6589                 2.8609
 IR Inten    --     29.8543                48.4478                 2.8727

                     28                     29                     30
                      A                      A                      A
 Frequencies --    860.9265               878.1490               886.1348
 Red. masses --      6.2082                 1.6105                 1.3901
 Frc consts  --      2.7111                 0.7317                 0.6431
 IR Inten    --     22.0958                 6.6028                 0.4271

                     31                     32                     33
                      A                      A                      A
 Frequencies --    931.9017               962.3455               974.4687
 Red. masses --      6.8687                 1.3624                 1.3644
 Frc consts  --      3.5145                 0.7434                 0.7634
 IR Inten    --     44.6630                 0.9424                 1.5698

                     34                     35                     36
                      A                      A                      A
 Frequencies --   1010.6416              1015.4974              1025.2412
 Red. masses --      1.3051                 1.3059                 7.5801
 Frc consts  --      0.7854                 0.7934                 4.6944
 IR Inten    --      0.2971                 0.0024                 5.5673

                     37                     38                     39
                      A                      A                      A
 Frequencies --   1053.2788              1062.0938              1110.7926
 Red. masses --      2.0085                 1.8595                 3.0128
 Frc consts  --      1.3128                 1.2358                 2.1902
 IR Inten    --      5.9822                11.6402                 4.1893

                     40                     41                     42
                      A                      A                      A
 Frequencies --   1156.5183              1158.5824              1164.1652
 Red. masses --      1.4219                 1.0547                 1.4090
 Frc consts  --      1.1205                 0.8341                 1.1251
 IR Inten    --      9.5048                71.1229                 1.2579

                     43                     44                     45
                      A                      A                      A
 Frequencies --   1174.8513              1184.6002              1254.4632
 Red. masses --      1.0880                 1.2691                 2.0457
 Frc consts  --      0.8848                 1.0492                 1.8968
 IR Inten    --     87.3664                 4.0498                39.7072

                     46                     47                     48
                      A                      A                      A
 Frequencies --   1288.5174              1310.1214              1329.5699
 Red. masses --      1.6600                 4.4400                 2.3130
 Frc consts  --      1.6238                 4.4901                 2.4091
 IR Inten    --      1.6425               212.4768               119.0082

                     49                     50                     51
                      A                      A                      A
 Frequencies --   1378.2530              1380.6838              1410.5638
 Red. masses --      6.7207                 2.7389                 5.5811
 Frc consts  --      7.5218                 3.0762                 6.5427
 IR Inten    --     28.1393                20.7921                57.6562

                     52                     53                     54
                      A                      A                      A
 Frequencies --   1482.4093              1495.7681              1507.8040
 Red. masses --      2.7930                 2.7535                 3.0117
 Frc consts  --      3.6162                 3.6296                 4.0341
 IR Inten    --     36.2655                16.2472                38.8249

                     55                     56                     57
                      A                      A                      A
 Frequencies --   1574.6623              1584.8609              1631.4535
 Red. masses --      5.1547                 5.3031                 6.0128
 Frc consts  --      7.5306                 7.8480                 9.4293
 IR Inten    --    228.8194               891.2850               263.9818

                     58                     59                     60
                      A                      A                      A
 Frequencies --   1657.5934              1682.2613              1705.0281
 Red. masses --      6.9409                 6.7224                 6.8070
 Frc consts  --     11.2363                11.2088                11.6592
 IR Inten    --     16.2256                16.1512               180.0001

                     61                     62                     63
                      A                      A                      A
 Frequencies --   1874.5408              3198.4065              3204.6492
 Red. masses --      1.0973                 1.0882                 1.0892
 Frc consts  --      2.2719                 6.5590                 6.5906
 IR Inten    --    112.0532                 2.1950                 8.4793

                     64                     65                     66
                      A                      A                      A
 Frequencies --   3210.6429              3220.3511              3224.3981
 Red. masses --      1.0863                 1.0906                 1.0937
 Frc consts  --      6.5975                 6.6639                 6.6997
 IR Inten    --      1.7031                 2.1232                17.9836

                     67                     68                     69
                      A                      A                      A
 Frequencies --   3229.7238              3236.1883              3237.2390
 Red. masses --      1.0957                 1.0985                 1.1001
 Frc consts  --      6.7342                 6.7781                 6.7926
 IR Inten    --      7.1942                18.5444                12.6199

 - Thermochemistry -
 -------------------
 Temperature   298.150 Kelvin.  Pressure   1.00000 Atm.
 Atom     1 has atomic number  6 and mass  12.00000

 Molecular mass:   227.04049 amu.
 Principal axes and moments of inertia in atomic units:
                           1         2         3
     Eigenvalues --  1259.016836235.725527494.74234
           X            0.70872   0.70549   0.00000
           Y           -0.70549   0.70872  -0.00001
           Z           -0.00001   0.00001   1.00000
 This molecule is an asymmetric top.
 Rotational symmetry number  1.
 Warning -- assumption of classical behavior for rotation
           may cause significant error
 Rotational temperatures (Kelvin)      0.06879     0.01389     0.01156
 Rotational constants (GHZ):           1.43345     0.28942     0.24080
    2 imaginary frequencies ignored.
 Zero-point vibrational energy     487685.5 (Joules/Mol)
                                  116.55963 (Kcal/Mol)
 Warning -- explicit consideration of  16 degrees of freedom as
           vibrations may cause significant error
 Vibrational temperatures:     94.14   217.93   231.39   286.48   348.88
          (Kelvin)            411.99   471.85   582.88   624.86   628.01
                              660.95   748.40   772.60   815.82   827.51
                              835.91   933.00   981.11  1022.80  1086.88
                             1093.30  1105.66  1112.79  1125.62  1128.43
                             1238.68  1263.46  1274.95  1340.80  1384.60
                             1402.04  1454.09  1461.07  1475.09  1515.43
                             1528.12  1598.18  1663.97  1666.94  1674.97
                             1690.35  1704.38  1804.89  1853.89  1884.97
                             1912.95  1983.00  1986.50  2029.49  2132.86
                             2152.08  2169.39  2265.59  2280.26  2347.30
                             2384.91  2420.40  2453.16  2697.05  4601.79
                             4610.78  4619.40  4633.37  4639.19  4646.85
                             4656.15  4657.66

 Zero-point correction=                           0.185750 (Hartree/Particle)
 Thermal correction to Energy=                    0.196159
 Thermal correction to Enthalpy=                  0.197104
 Thermal correction to Gibbs Free Energy=         0.149124
 Sum of electronic and zero-point Energies=          -1028.627181
 Sum of electronic and thermal Energies=             -1028.616771
 Sum of electronic and thermal Enthalpies=           -1028.615827
 Sum of electronic and thermal Free Energies=        -1028.663807

                     E (Thermal)             CV                S
                      KCal/Mol        Cal/Mol-Kelvin    Cal/Mol-Kelvin
 Total                  123.092             44.151            100.983
 Electronic               0.000              0.000              0.000
 Translational            0.889              2.981             42.162
 Rotational               0.889              2.981             32.442
 Vibrational            121.314             38.190             26.378
 Vibration     1          0.597              1.971              4.286
 Vibration     2          0.619              1.901              2.654
 Vibration     3          0.622              1.890              2.540
 Vibration     4          0.637              1.841              2.141
 Vibration     5          0.659              1.775              1.785
 Vibration     6          0.684              1.699              1.495
 Vibration     7          0.711              1.620              1.270
 Vibration     8          0.770              1.459              0.944
 Vibration     9          0.795              1.395              0.845
 Vibration    10          0.797              1.391              0.838
 Vibration    11          0.817              1.340              0.768
 Vibration    12          0.875              1.205              0.610
 Vibration    13          0.892              1.168              0.572
 Vibration    14          0.923              1.103              0.510
 Vibration    15          0.932              1.085              0.494
 Vibration    16          0.938              1.072              0.484

                           ! Non-Optimized Parameters !
 Normal termination of Gaussian 16 at Wed Oct 28 01:30:35 2020.
