 Gaussian 16, Revision C.01,
 Gaussian 16:  ES64L-G16RevC.01  3-Jul-2019

 ----------------------------------------------------------------------
 #p opt=addgic freq wb97xd/cc-pvdz nosymm int=ultrafine scrf=(solvent=C
 arbonTetraChloride)
 ----------------------------------------------------------------------

 ------------------------------------------------
 NM 2D-scan of HBT TD-WB97XD pVDZ in CTC Relaxed.
 ------------------------------------------------
 Symbolic Z-matrix:
 Charge =  0 Multiplicity = 1

 SCF Done:  E(RwB97XD) =  -1028.68358583     A.U. after   16 cycles
 SCF Done:  E(RwB97XD) =  -1028.77802994     A.U. after   13 cycles
 SCF Done:  E(RwB97XD) =  -1028.79341201     A.U. after   14 cycles
 SCF Done:  E(RwB97XD) =  -1028.80299995     A.U. after   13 cycles
 SCF Done:  E(RwB97XD) =  -1028.80327888     A.U. after   11 cycles
 SCF Done:  E(RwB97XD) =  -1028.80332571     A.U. after   10 cycles
 SCF Done:  E(RwB97XD) =  -1028.80332667     A.U. after    9 cycles
 Optimization completed.
    -- Stationary point found.
 Normal termination of Gaussian 16 at Tue Oct 27 23:13:22 2020.

 --------------------------------------------------------------------
 #P Geom=AllCheck Guess=TCheck SCRF=Check GenChk RwB97XD/CC-pVDZ Freq
 --------------------------------------------------------------------

 Structure from the checkpoint file:  "config_11_11.chk"
 ------------------------------------------------
 NM 2D-scan of HBT TD-WB97XD pVDZ in CTC Relaxed.
 ------------------------------------------------
 Charge =  0 Multiplicity = 1

                          Input orientation:
 ---------------------------------------------------------------------
 Center     Atomic      Atomic             Coordinates (Angstroms)
 Number     Number       Type             X           Y           Z
 ---------------------------------------------------------------------
      1          6           0        1.632751   -3.278564   -0.000023
      2          6           0        1.006683   -2.037680   -0.000013
      3          6           0        1.751302   -0.869470   -0.000012
      4          6           0        3.145182   -0.884350   -0.000015
      5          6           0        3.771309   -2.128541   -0.000022
      6          6           0        3.025112   -3.311591   -0.000027
      7          1           0        1.050847   -4.200025   -0.000027
      8          1           0        3.717872    0.043723   -0.000013
      9          1           0        4.860891   -2.176458   -0.000025
     10          1           0        3.537564   -4.273984   -0.000035
     11          7           0        0.916607    0.231402   -0.000012
     12         16           0       -0.723534   -1.658828   -0.000003
     13          6           0       -1.368687    1.100651    0.000009
     14          6           0       -2.761856    0.831568    0.000005
     15          6           0       -0.855160    2.471368    0.000033
     16          6           0       -3.688806    1.845346    0.000027
     17          1           0       -3.103443   -0.207947   -0.000015
     18          6           0       -1.898548    3.497988    0.000052
     19          6           0       -3.234600    3.192983    0.000051
     20          1           0       -4.755599    1.620630    0.000024
     21          1           0       -1.559760    4.535983    0.000067
     22          1           0       -3.972316    3.999783    0.000067
     23          6           0       -0.416568    0.054523   -0.000004
     24          8           0        0.363380    2.714957    0.000020
     25          1           0        1.367139    1.117467   -0.000023
 ---------------------------------------------------------------------

 SCF Done:  E(RwB97XD) =  -1028.80332667     A.U. after    1 cycles

 Alpha  occ. eigenvalues --  -89.09945 -19.21231 -14.51942 -10.41601 -10.36984
 Alpha  occ. eigenvalues --  -10.36032 -10.35839 -10.33305 -10.33068 -10.32632
 Alpha  occ. eigenvalues --  -10.32304 -10.31117 -10.30652 -10.30445 -10.29082
 Alpha  occ. eigenvalues --  -10.28562  -8.11986  -6.06873  -6.06480  -6.05989
 Alpha  occ. eigenvalues --   -1.13211  -1.10108  -0.98640  -0.95354  -0.93271
 Alpha  occ. eigenvalues --   -0.89228  -0.86624  -0.83958  -0.81662  -0.75569
 Alpha  occ. eigenvalues --   -0.73951  -0.71852  -0.69400  -0.67855  -0.64572
 Alpha  occ. eigenvalues --   -0.60915  -0.59779  -0.56648  -0.56019  -0.55972
 Alpha  occ. eigenvalues --   -0.55027  -0.53680  -0.52987  -0.50288  -0.49451
 Alpha  occ. eigenvalues --   -0.49015  -0.48269  -0.46731  -0.45645  -0.44727
 Alpha  occ. eigenvalues --   -0.44539  -0.42925  -0.41819  -0.40406  -0.36899
 Alpha  occ. eigenvalues --   -0.33598  -0.31677  -0.31378  -0.26162
 Alpha virt. eigenvalues --   -0.01293   0.03753   0.05968   0.06888   0.09511
 Alpha virt. eigenvalues --    0.11259   0.13447   0.14638   0.15985   0.17010
 Alpha virt. eigenvalues --    0.18379   0.19841   0.21066   0.21615   0.23027

 Mulliken charges:
               1
     1  C    0.013528
     2  C   -0.242441
     3  C    0.228769
     4  C   -0.011382
     5  C    0.011401
     6  C    0.003450
     7  H    0.024401
     8  H    0.031171
     9  H    0.027552
    10  H    0.026024
    11  N   -0.098912
    12  S    0.179565
    13  C   -0.108811
    14  C   -0.011404
    15  C    0.105064
    16  C   -0.034323
    17  H    0.006005
    18  C   -0.037373
    19  C    0.028370
    20  H    0.002243
    21  H    0.001202
    22  H    0.013649
    23  C    0.094779
    24  O   -0.370746
    25  H    0.118217
 Sum of Mulliken charges =  -0.00000

 Dipole moment (field-independent basis, Debye):
    X=              2.0698    Y=             -5.2669    Z=             -0.0001  Tot=              5.6590
 Quadrupole moment (field-independent basis, Debye-Ang):
   XX=            -81.5395   YY=            -95.4185   ZZ=           -103.9979
   XY=             -6.6277   XZ=             -0.0002   YZ=              0.0001

  Exact polarizability:     289.874     -90.165     287.939      -0.002       0.002      62.920
 Approx polarizability:     267.505     -34.919     255.164      -0.001       0.002      81.923

                      1                      2                      3
                      A                      A                      A
 Frequencies --     30.1267                64.3900               111.2003
 Red. masses --      4.6189                 6.5315                 5.6814
 Frc consts  --      0.0025                 0.0160                 0.0414
 IR Inten    --      1.3773                 1.8621                 0.8677

                      4                      5                      6
                      A                      A                      A
 Frequencies --    117.1556               192.4370               227.8301
 Red. masses --      5.3338                 5.9038                 5.8405
 Frc consts  --      0.0431                 0.1288                 0.1786
 IR Inten    --      0.2949                 0.0585                 1.5012

                      7                      8                      9
                      A                      A                      A
 Frequencies --    268.7189               304.9803               308.6824
 Red. masses --      7.6132                 4.9135                 7.1548
 Frc consts  --      0.3239                 0.2693                 0.4017
 IR Inten    --      4.3403                 3.2452                 3.9494

                     10                     11                     12
                      A                      A                      A
 Frequencies --    389.7663               424.4376               443.5719
 Red. masses --      8.2176                 3.2037                 3.4993
 Frc consts  --      0.7355                 0.3400                 0.4057
 IR Inten    --      5.0075                 2.7909                11.2413

                     13                     14                     15
                      A                      A                      A
 Frequencies --    503.8556               512.8697               532.7622
 Red. masses --      8.0102                 1.5626                 1.6019
 Frc consts  --      1.1981                 0.2422                 0.2679
 IR Inten    --      9.7702                54.4487                16.2301

                     16                     17                     18
                      A                      A                      A
 Frequencies --    535.9683               548.8723               562.0924
 Red. masses --      8.1118                 6.7419                 3.8032
 Frc consts  --      1.3729                 1.1967                 0.7080
 IR Inten    --      9.3654                 4.8087                 0.0002

                     19                     20                     21
                      A                      A                      A
 Frequencies --    582.0411               636.8988               659.5356
 Red. masses --      7.3144                 6.3555                 6.0895
 Frc consts  --      1.4599                 1.5189                 1.5606
 IR Inten    --     38.4855                 4.6197                 3.6853

                     22                     23                     24
                      A                      A                      A
 Frequencies --    706.3379               740.0330               751.6123
 Red. masses --      5.7621                 7.4899                 2.7069
 Frc consts  --      1.6938                 2.4167                 0.9010
 IR Inten    --     53.0384                47.2807                10.6771

                     25                     26                     27
                      A                      A                      A
 Frequencies --    759.6475               775.5279               779.9355
 Red. masses --      1.4288                 1.5441                 2.4358
 Frc consts  --      0.4858                 0.5472                 0.8730
 IR Inten    --     47.4700                47.1489                25.0162

                     28                     29                     30
                      A                      A                      A
 Frequencies --    831.0450               876.3353               881.9569
 Red. masses --      6.2677                 2.0300                 1.3744
 Frc consts  --      2.5504                 0.9185                 0.6299
 IR Inten    --     22.2498                15.3655                 0.9959

                     31                     32                     33
                      A                      A                      A
 Frequencies --    895.0014               966.9334               967.2710
 Red. masses --      5.1503                 4.0968                 1.3221
 Frc consts  --      2.4307                 2.2568                 0.7288
 IR Inten    --      0.8292                32.1739                 0.1355

                     34                     35                     36
                      A                      A                      A
 Frequencies --    970.5947              1014.2443              1017.0366
 Red. masses --      1.3587                 1.3022                 1.3063
 Frc consts  --      0.7542                 0.7893                 0.7961
 IR Inten    --      1.4881                 0.0106                 0.3414

                     37                     38                     39
                      A                      A                      A
 Frequencies --   1044.0477              1057.3069              1091.3211
 Red. masses --      2.1279                 2.0769                 3.3513
 Frc consts  --      1.3666                 1.3679                 2.3516
 IR Inten    --     10.2319                12.6804                21.2922

                     40                     41                     42
                      A                      A                      A
 Frequencies --   1113.9595              1156.7599              1159.8602
 Red. masses --      2.0479                 1.3453                 1.2107
 Frc consts  --      1.4972                 1.0606                 0.9596
 IR Inten    --     57.8728                 0.5333                68.3033

                     43                     44                     45
                      A                      A                      A
 Frequencies --   1182.6812              1194.4758              1238.5916
 Red. masses --      1.1517                 1.2057                 2.1904
 Frc consts  --      0.9491                 1.0135                 1.9798
 IR Inten    --     25.5276                11.3562                22.9032

                     46                     47                     48
                      A                      A                      A
 Frequencies --   1286.5705              1300.0525              1361.4962
 Red. masses --      1.9754                 1.9461                 2.5845
 Frc consts  --      1.9265                 1.9379                 2.8227
 IR Inten    --     75.7467               136.6691                43.1955

                     49                     50                     51
                      A                      A                      A
 Frequencies --   1388.7025              1393.7175              1413.8605
 Red. masses --      7.1794                 5.6239                 2.1790
 Frc consts  --      8.1575                 6.4363                 2.5664
 IR Inten    --     83.7406                76.5649                 5.9285

                     52                     53                     54
                      A                      A                      A
 Frequencies --   1491.5873              1507.2395              1530.8703
 Red. masses --      2.9039                 2.9667                 3.0542
 Frc consts  --      3.8066                 3.9709                 4.2172
 IR Inten    --    178.0235               677.2119               170.0979

                     55                     56                     57
                      A                      A                      A
 Frequencies --   1543.8018              1595.1530              1651.9436
 Red. masses --      4.5736                 6.9031                 6.3194
 Frc consts  --      6.4223                10.3491                10.1605
 IR Inten    --   1415.7839                83.0328                70.6950

                     58                     59                     60
                      A                      A                      A
 Frequencies --   1681.3284              1695.6489              1729.8192
 Red. masses --      7.2093                 7.7415                 8.5879
 Frc consts  --     12.0074                13.1144                15.1405
 IR Inten    --     57.3205                42.2713               435.1641

                     61                     62                     63
                      A                      A                      A
 Frequencies --   3181.3776              3193.2635              3218.4647
 Red. masses --      1.0890                 1.0878                 1.0875
 Frc consts  --      6.4942                 6.5351                 6.6368
 IR Inten    --      4.3551                14.4417                 5.1013

                     64                     65                     66
                      A                      A                      A
 Frequencies --   3218.5230              3229.0191              3231.5178
 Red. masses --      1.0933                 1.0907                 1.0971
 Frc consts  --      6.6730                 6.7005                 6.7503
 IR Inten    --     27.3420                 2.2854                19.9923

                     67                     68                     69
                      A                      A                      A
 Frequencies --   3237.3304              3244.5693              3831.9362
 Red. masses --      1.0962                 1.0997                 1.0792
 Frc consts  --      6.7690                 6.8207                 9.3365
 IR Inten    --      4.2187                11.8926               127.2261

 - Thermochemistry -
 -------------------
 Temperature   298.150 Kelvin.  Pressure   1.00000 Atm.
 Atom     1 has atomic number  6 and mass  12.00000

 Molecular mass:   227.04049 amu.
 Principal axes and moments of inertia in atomic units:
                           1         2         3
     Eigenvalues --  1283.644746393.268617676.91335
           X           -0.70564   0.70857   0.00000
           Y            0.70857   0.70564  -0.00001
           Z            0.00001   0.00000   1.00000
 This molecule is an asymmetric top.
 Rotational symmetry number  1.
 Warning -- assumption of classical behavior for rotation
           may cause significant error
 Rotational temperatures (Kelvin)      0.06747     0.01355     0.01128
 Rotational constants (GHZ):           1.40595     0.28229     0.23509
 Zero-point vibrational energy     498175.9 (Joules/Mol)
                                  119.06689 (Kcal/Mol)
 Warning -- explicit consideration of  19 degrees of freedom as
           vibrations may cause significant error
 Vibrational temperatures:     43.35    92.64   159.99   168.56   276.87
          (Kelvin)            327.80   386.63   438.80   444.13   560.79
                              610.67   638.20   724.94   737.91   766.53
                              771.14   789.70   808.73   837.43   916.36
                              948.92  1016.26  1064.74  1081.40  1092.96
                             1115.81  1122.15  1195.69  1260.85  1268.94
                             1287.71  1391.20  1391.69  1396.47  1459.27
                             1463.29  1502.15  1521.23  1570.17  1602.74
                             1664.32  1668.78  1701.61  1718.58  1782.06
                             1851.09  1870.49  1958.89  1998.03  2005.25
                             2034.23  2146.06  2168.58  2202.58  2221.19
                             2295.07  2376.78  2419.06  2439.66  2488.82
                             4577.29  4594.39  4630.65  4630.74  4645.84
                             4649.43  4657.80  4668.21  5513.30

 Zero-point correction=                           0.189745 (Hartree/Particle)
 Thermal correction to Energy=                    0.201857
 Thermal correction to Enthalpy=                  0.202801
 Thermal correction to Gibbs Free Energy=         0.150337
 Sum of electronic and zero-point Energies=          -1028.613582
 Sum of electronic and thermal Energies=             -1028.601470
 Sum of electronic and thermal Enthalpies=           -1028.600525
 Sum of electronic and thermal Free Energies=        -1028.652989

                     E (Thermal)             CV                S
                      KCal/Mol        Cal/Mol-Kelvin    Cal/Mol-Kelvin
 Total                  126.667             48.815            110.420
 Electronic               0.000              0.000              0.000
 Translational            0.889              2.981             42.162
 Rotational               0.889              2.981             32.510
 Vibrational            124.890             42.854             35.747
 Vibration     1          0.594              1.984              5.821
 Vibration     2          0.597              1.971              4.318
 Vibration     3          0.607              1.940              3.248
 Vibration     4          0.608              1.935              3.147
 Vibration     5          0.634              1.850              2.204
 Vibration     6          0.651              1.799              1.896
 Vibration     7          0.673              1.731              1.604
 Vibration     8          0.696              1.664              1.389
 Vibration     9          0.698              1.657              1.369
 Vibration    10          0.758              1.492              1.001
 Vibration    11          0.786              1.417              0.877
 Vibration    12          0.803              1.375              0.815
 Vibration    13          0.859              1.241              0.649
 Vibration    14          0.868              1.221              0.627
 Vibration    15          0.888              1.178              0.581
 Vibration    16          0.891              1.170              0.574
 Vibration    17          0.904              1.142              0.547
 Vibration    18          0.918              1.113              0.520
 Vibration    19          0.939              1.070              0.482

 Optimization completed.
    -- Stationary point found.
 Normal termination of Gaussian 16 at Tue Oct 27 23:19:18 2020.
