 Gaussian 16, Revision C.01,
 Gaussian 16:  ES64L-G16RevC.01  3-Jul-2019

 ----------------------------------------------------------------------
 #p opt=addgic freq wb97xd/cc-pvdz nosymm int=ultrafine scrf=(solvent=C
 arbonTetraChloride)
 ----------------------------------------------------------------------

 ------------------------------------------------
 NM 2D-scan of HBT TD-WB97XD pVDZ in CTC Relaxed.
 ------------------------------------------------
 Symbolic Z-matrix:
 Charge =  0 Multiplicity = 1

 SCF Done:  E(RwB97XD) =  -1028.71124965     A.U. after   15 cycles
 SCF Done:  E(RwB97XD) =  -1028.81122640     A.U. after   13 cycles
 SCF Done:  E(RwB97XD) =  -1028.80398220     A.U. after   15 cycles
 SCF Done:  E(RwB97XD) =  -1028.82774508     A.U. after   12 cycles
 SCF Done:  E(RwB97XD) =  -1028.82866238     A.U. after   11 cycles
 SCF Done:  E(RwB97XD) =  -1028.82878040     A.U. after   11 cycles
 SCF Done:  E(RwB97XD) =  -1028.82879527     A.U. after    9 cycles
 SCF Done:  E(RwB97XD) =  -1028.82879657     A.U. after    8 cycles
 Optimization completed.
    -- Stationary point found.
 Normal termination of Gaussian 16 at Tue Oct 27 22:44:58 2020.

 --------------------------------------------------------------------
 #P Geom=AllCheck Guess=TCheck SCRF=Check GenChk RwB97XD/CC-pVDZ Freq
 --------------------------------------------------------------------

 Structure from the checkpoint file:  "config_2_9.chk"
 ------------------------------------------------
 NM 2D-scan of HBT TD-WB97XD pVDZ in CTC Relaxed.
 ------------------------------------------------
 Charge =  0 Multiplicity = 1

                          Input orientation:
 ---------------------------------------------------------------------
 Center     Atomic      Atomic             Coordinates (Angstroms)
 Number     Number       Type             X           Y           Z
 ---------------------------------------------------------------------
      1          6           0        1.660497   -3.313464   -0.000019
      2          6           0        0.974579   -2.092841   -0.000013
      3          6           0        1.686465   -0.878617   -0.000014
      4          6           0        3.085270   -0.862685   -0.000020
      5          6           0        3.762616   -2.069214   -0.000027
      6          6           0        3.052749   -3.282501   -0.000026
      7          1           0        1.126793   -4.264376   -0.000019
      8          1           0        3.606889    0.094897   -0.000021
      9          1           0        4.853413   -2.081720   -0.000032
     10          1           0        3.602938   -4.224811   -0.000032
     11          7           0        0.916248    0.260199   -0.000009
     12         16           0       -0.747610   -1.741506   -0.000007
     13          6           0       -1.346453    1.091228    0.000007
     14          6           0       -2.736125    0.851726   -0.000001
     15          6           0       -0.905057    2.445821    0.000030
     16          6           0       -3.654351    1.888236    0.000020
     17          1           0       -3.095746   -0.180355   -0.000023
     18          6           0       -1.845013    3.485140    0.000057
     19          6           0       -3.199164    3.214447    0.000052
     20          1           0       -4.722668    1.671714    0.000013
     21          1           0       -1.462117    4.506141    0.000079
     22          1           0       -3.913841    4.039455    0.000073
     23          6           0       -0.359024    0.004696   -0.000004
     24          8           0        0.375986    2.841315    0.000031
     25          1           0        0.938506    2.040947    0.000016
 ---------------------------------------------------------------------

 SCF Done:  E(RwB97XD) =  -1028.82879657     A.U. after    1 cycles

 Alpha  occ. eigenvalues --  -89.08708 -19.28439 -14.46737 -10.39470 -10.37506
 Alpha  occ. eigenvalues --  -10.34890 -10.34648 -10.32667 -10.32379 -10.31911
 Alpha  occ. eigenvalues --  -10.31573 -10.31455 -10.31371 -10.31362 -10.30283
 Alpha  occ. eigenvalues --  -10.30051  -8.10662  -6.05525  -6.05170  -6.04705
 Alpha  occ. eigenvalues --   -1.16636  -1.08850  -0.97201  -0.96107  -0.91291
 Alpha  occ. eigenvalues --   -0.88520  -0.85297  -0.84549  -0.82887  -0.75457
 Alpha  occ. eigenvalues --   -0.71350  -0.70622  -0.69457  -0.68126  -0.63061
 Alpha  occ. eigenvalues --   -0.60294  -0.58648  -0.58403  -0.56417  -0.54488
 Alpha  occ. eigenvalues --   -0.53836  -0.53124  -0.52621  -0.50850  -0.50381
 Alpha  occ. eigenvalues --   -0.49230  -0.47814  -0.45811  -0.45322  -0.44944
 Alpha  occ. eigenvalues --   -0.43829  -0.42966  -0.42533  -0.39670  -0.37344
 Alpha  occ. eigenvalues --   -0.36153  -0.32050  -0.31724  -0.29112
 Alpha virt. eigenvalues --   -0.00420   0.04878   0.06802   0.07162   0.07594
 Alpha virt. eigenvalues --    0.11546   0.13626   0.15155   0.16147   0.17829
 Alpha virt. eigenvalues --    0.18928   0.20536   0.21683   0.22505   0.22836

 Mulliken charges:
               1
     1  C    0.003604
     2  C   -0.211315
     3  C    0.222868
     4  C   -0.013458
     5  C    0.006846
     6  C   -0.001258
     7  H    0.019719
     8  H    0.016370
     9  H    0.019070
    10  H    0.021229
    11  N   -0.332938
    12  S    0.138295
    13  C   -0.058628
    14  C   -0.020957
    15  C    0.062195
    16  C   -0.006099
    17  H    0.013151
    18  C    0.016029
    19  C    0.019729
    20  H    0.010265
    21  H    0.017016
    22  H    0.018485
    23  C    0.077205
    24  O   -0.193178
    25  H    0.155758
 Sum of Mulliken charges =  -0.00000

 Dipole moment (field-independent basis, Debye):
    X=              0.0235    Y=             -2.1844    Z=             -0.0000  Tot=              2.1845
 Quadrupole moment (field-independent basis, Debye-Ang):
   XX=            -82.6977   YY=            -89.8278   ZZ=           -104.2009
   XY=             -6.9600   XZ=             -0.0001   YZ=              0.0002

  Exact polarizability:     274.744     -65.970     255.885      -0.001       0.002      63.056
 Approx polarizability:     262.835     -22.542     243.048      -0.001       0.002      82.231

                      1                      2                      3
                      A                      A                      A
 Frequencies --     52.7758                58.1606               113.5088
 Red. masses --      6.3899                 5.0449                 5.6457
 Frc consts  --      0.0105                 0.0101                 0.0429
 IR Inten    --      0.7881                 0.3610                 1.1936

                      4                      5                      6
                      A                      A                      A
 Frequencies --    152.1298               199.6914               245.8156
 Red. masses --      4.9305                 5.8598                 5.7766
 Frc consts  --      0.0672                 0.1377                 0.2057
 IR Inten    --      0.0001                 0.5281                 0.0408

                      7                      8                      9
                      A                      A                      A
 Frequencies --    262.2188               292.5992               326.9914
 Red. masses --      8.1307                 6.2211                 5.0757
 Frc consts  --      0.3294                 0.3138                 0.3198
 IR Inten    --      3.1149                 5.9700                 0.3306

                     10                     11                     12
                      A                      A                      A
 Frequencies --    403.0523               439.5766               469.7875
 Red. masses --      8.6670                 3.1599                 3.7514
 Frc consts  --      0.8295                 0.3597                 0.4878
 IR Inten    --      0.2033                 2.0769                 8.2277

                     13                     14                     15
                      A                      A                      A
 Frequencies --    497.9647               514.9708               538.8862
 Red. masses --      4.7292                 8.7034                 3.4536
 Frc consts  --      0.6909                 1.3599                 0.5909
 IR Inten    --      5.7911                 0.0825                 3.9165

                     16                     17                     18
                      A                      A                      A
 Frequencies --    546.5594               574.2954               593.7036
 Red. masses --      8.5946                 3.7266                 7.7117
 Frc consts  --      1.5127                 0.7242                 1.6015
 IR Inten    --      2.5080                 0.0114                 6.2984

                     19                     20                     21
                      A                      A                      A
 Frequencies --    642.2309               677.5360               702.1503
 Red. masses --      4.4881                 6.5339                 8.6077
 Frc consts  --      1.0907                 1.7672                 2.5003
 IR Inten    --      3.5467                 5.3469                43.7201

                     22                     23                     24
                      A                      A                      A
 Frequencies --    714.5819               724.9514               755.9918
 Red. masses --      1.2176                 7.6784                 1.9466
 Frc consts  --      0.3663                 2.3776                 0.6555
 IR Inten    --     79.0819                 1.4813                20.6726

                     25                     26                     27
                      A                      A                      A
 Frequencies --    771.9740               779.3014               789.3698
 Red. masses --      2.8915                 1.3625                 1.9130
 Frc consts  --      1.0153                 0.4875                 0.7023
 IR Inten    --     28.3209                38.2306                44.4129

                     28                     29                     30
                      A                      A                      A
 Frequencies --    841.7182               885.6461               888.3301
 Red. masses --      6.0514                 1.5334                 1.4287
 Frc consts  --      2.5260                 0.7087                 0.6643
 IR Inten    --     23.8285                 3.8755                 0.8295

                     31                     32                     33
                      A                      A                      A
 Frequencies --    893.3172               973.3218               976.7090
 Red. masses --      6.4601                 1.3550                 1.3641
 Frc consts  --      3.0374                 0.7563                 0.7667
 IR Inten    --      2.5716                 1.2393                 1.4829

                     34                     35                     36
                      A                      A                      A
 Frequencies --    980.7646              1011.5516              1015.6507
 Red. masses --      7.6310                 1.3011                 1.3045
 Frc consts  --      4.3247                 0.7844                 0.7929
 IR Inten    --     66.7177                 0.3212                 0.0115

                     37                     38                     39
                      A                      A                      A
 Frequencies --   1052.0167              1070.9451              1096.2080
 Red. masses --      2.0175                 2.0135                 4.5105
 Frc consts  --      1.3156                 1.3606                 3.1934
 IR Inten    --      8.1510                13.3273                 6.1775

                     40                     41                     42
                      A                      A                      A
 Frequencies --   1146.8410              1151.3088              1176.4706
 Red. masses --      1.5334                 1.2892                 1.1259
 Frc consts  --      1.1882                 1.0068                 0.9182
 IR Inten    --      5.4195                 4.8954                46.8974

                     43                     44                     45
                      A                      A                      A
 Frequencies --   1184.8818              1237.3789              1281.3987
 Red. masses --      1.1951                 1.6984                 2.1964
 Frc consts  --      0.9885                 1.5321                 2.1248
 IR Inten    --      0.3089               165.7845                85.4164

                     46                     47                     48
                      A                      A                      A
 Frequencies --   1284.1939              1317.3158              1348.7621
 Red. masses --      1.5806                 5.3762                 3.0031
 Frc consts  --      1.5358                 5.4968                 3.2188
 IR Inten    --      8.1469                25.2943                10.1345

                     49                     50                     51
                      A                      A                      A
 Frequencies --   1369.4638              1375.8918              1425.5268
 Red. masses --      8.1952                 3.0084                 1.7258
 Frc consts  --      9.0555                 3.3555                 2.0663
 IR Inten    --     16.0529                 9.3675                76.4217

                     52                     53                     54
                      A                      A                      A
 Frequencies --   1490.9051              1500.6942              1519.5160
 Red. masses --      2.6378                 3.0018                 3.6753
 Frc consts  --      3.4545                 3.9830                 4.9998
 IR Inten    --     30.8406                 6.3145               106.3079

                     55                     56                     57
                      A                      A                      A
 Frequencies --   1535.0767              1598.3435              1644.3909
 Red. masses --      2.5935                 8.4256                 6.6205
 Frc consts  --      3.6008                12.6821                10.5476
 IR Inten    --     82.2997               203.5569                 9.8065

                     58                     59                     60
                      A                      A                      A
 Frequencies --   1653.2458              1683.1215              1708.9924
 Red. masses --      5.3888                 6.8998                 6.4021
 Frc consts  --      8.6779                11.5164                11.0167
 IR Inten    --    107.8447                 5.2660               100.9005

                     61                     62                     63
                      A                      A                      A
 Frequencies --   3197.4056              3210.7554              3211.3278
 Red. masses --      1.0890                 1.0883                 1.0862
 Frc consts  --      6.5593                 6.6104                 6.5996
 IR Inten    --      3.4929                 6.2748                 1.5160

                     64                     65                     66
                      A                      A                      A
 Frequencies --   3222.6405              3229.9910              3233.3615
 Red. masses --      1.0905                 1.0941                 1.0959
 Frc consts  --      6.6730                 6.7252                 6.7504
 IR Inten    --      5.0947                10.1222                11.7115

                     67                     68                     69
                      A                      A                      A
 Frequencies --   3237.7869              3239.2599              3516.0091
 Red. masses --      1.0993                 1.0997                 1.0671
 Frc consts  --      6.7899                 6.7983                 7.7723
 IR Inten    --     18.1610                12.6066               638.3188

 - Thermochemistry -
 -------------------
 Temperature   298.150 Kelvin.  Pressure   1.00000 Atm.
 Atom     1 has atomic number  6 and mass  12.00000

 Molecular mass:   227.04049 amu.
 Principal axes and moments of inertia in atomic units:
                           1         2         3
     Eigenvalues --  1331.392086372.550267703.94234
           X           -0.69523   0.71879   0.00000
           Y            0.71879   0.69523  -0.00001
           Z            0.00001   0.00000   1.00000
 This molecule is an asymmetric top.
 Rotational symmetry number  1.
 Warning -- assumption of classical behavior for rotation
           may cause significant error
 Rotational temperatures (Kelvin)      0.06506     0.01359     0.01124
 Rotational constants (GHZ):           1.35553     0.28321     0.23426
 Zero-point vibrational energy     499196.9 (Joules/Mol)
                                  119.31093 (Kcal/Mol)
 Warning -- explicit consideration of  18 degrees of freedom as
           vibrations may cause significant error
 Vibrational temperatures:     75.93    83.68   163.31   218.88   287.31
          (Kelvin)            353.67   377.27   420.99   470.47   579.90
                              632.45   675.92   716.46   740.93   775.34
                              786.38   826.28   854.21   924.03   974.82
                             1010.24  1028.12  1043.04  1087.70  1110.70
                             1121.24  1135.73  1211.04  1274.25  1278.11
                             1285.28  1400.39  1405.27  1411.10  1455.40
                             1461.29  1513.62  1540.85  1577.20  1650.05
                             1656.48  1692.68  1704.78  1780.31  1843.65
                             1847.67  1895.32  1940.57  1970.35  1979.60
                             2051.02  2145.08  2159.16  2186.24  2208.63
                             2299.66  2365.91  2378.65  2421.64  2458.86
                             4600.35  4619.56  4620.38  4636.66  4647.24
                             4652.09  4658.45  4660.57  5058.75

 Zero-point correction=                           0.190134 (Hartree/Particle)
 Thermal correction to Energy=                    0.201922
 Thermal correction to Enthalpy=                  0.202866
 Thermal correction to Gibbs Free Energy=         0.151445
 Sum of electronic and zero-point Energies=          -1028.638662
 Sum of electronic and thermal Energies=             -1028.626874
 Sum of electronic and thermal Enthalpies=           -1028.625930
 Sum of electronic and thermal Free Energies=        -1028.677352

                     E (Thermal)             CV                S
                      KCal/Mol        Cal/Mol-Kelvin    Cal/Mol-Kelvin
 Total                  126.708             47.983            108.225
 Electronic               0.000              0.000              0.000
 Translational            0.889              2.981             42.162
 Rotational               0.889              2.981             32.547
 Vibrational            124.931             42.021             33.516
 Vibration     1          0.596              1.976              4.711
 Vibration     2          0.596              1.974              4.519
 Vibration     3          0.607              1.938              3.208
 Vibration     4          0.619              1.900              2.645
 Vibration     5          0.638              1.840              2.136
 Vibration     6          0.660              1.770              1.760
 Vibration     7          0.670              1.742              1.647
 Vibration     8          0.688              1.688              1.459
 Vibration     9          0.711              1.622              1.275
 Vibration    10          0.768              1.464              0.951
 Vibration    11          0.800              1.384              0.828
 Vibration    12          0.827              1.317              0.738
 Vibration    13          0.853              1.255              0.663
 Vibration    14          0.870              1.217              0.622
 Vibration    15          0.894              1.164              0.568
 Vibration    16          0.902              1.147              0.551
 Vibration    17          0.931              1.087              0.496
 Vibration    18          0.951              1.045              0.461

 Optimization completed.
    -- Stationary point found.
 Normal termination of Gaussian 16 at Tue Oct 27 22:50:50 2020.
