 Gaussian 16, Revision C.01,
 Gaussian 16:  ES64L-G16RevC.01  3-Jul-2019

 ----------------------------------------------------------------------
 #p opt=addgic freq wb97xd/cc-pvdz nosymm int=ultrafine scrf=(solvent=C
 arbonTetraChloride)
 ----------------------------------------------------------------------

 ------------------------------------------------
 NM 2D-scan of HBT TD-WB97XD pVDZ in CTC Relaxed.
 ------------------------------------------------
 Symbolic Z-matrix:
 Charge =  0 Multiplicity = 1

 SCF Done:  E(RwB97XD) =  -1028.80696323     A.U. after   15 cycles
 SCF Done:  E(RwB97XD) =  -1028.81567591     A.U. after   13 cycles
 SCF Done:  E(RwB97XD) =  -1028.81638558     A.U. after   13 cycles
 SCF Done:  E(RwB97XD) =  -1028.81678622     A.U. after   12 cycles
 SCF Done:  E(RwB97XD) =  -1028.81732204     A.U. after   12 cycles
 SCF Done:  E(RwB97XD) =  -1028.81733858     A.U. after   10 cycles
 SCF Done:  E(RwB97XD) =  -1028.81729611     A.U. after   11 cycles
 SCF Done:  E(RwB97XD) =  -1028.81733977     A.U. after   10 cycles
 SCF Done:  E(RwB97XD) =  -1028.81734209     A.U. after    9 cycles
 Optimization completed.
    -- Stationary point found.
 Normal termination of Gaussian 16 at Wed Oct 28 02:16:30 2020.

 --------------------------------------------------------------------
 #P Geom=AllCheck Guess=TCheck SCRF=Check GenChk RwB97XD/CC-pVDZ Freq
 --------------------------------------------------------------------

 Structure from the checkpoint file:  "config_5_18.chk"
 ------------------------------------------------
 NM 2D-scan of HBT TD-WB97XD pVDZ in CTC Relaxed.
 ------------------------------------------------
 Charge =  0 Multiplicity = 1

                          Input orientation:
 ---------------------------------------------------------------------
 Center     Atomic      Atomic             Coordinates (Angstroms)
 Number     Number       Type             X           Y           Z
 ---------------------------------------------------------------------
      1          6           0        1.519227   -3.239612   -0.000164
      2          6           0        1.012039   -1.946252   -0.000111
      3          6           0        1.805294   -0.789317    0.000025
      4          6           0        3.200073   -0.959311    0.000097
      5          6           0        3.718953   -2.256845    0.000044
      6          6           0        2.894995   -3.391842   -0.000081
      7          1           0        0.846695   -4.097784   -0.000254
      8          1           0        3.866533   -0.096024    0.000200
      9          1           0        4.802187   -2.387964    0.000108
     10          1           0        3.335272   -4.389623   -0.000108
     11          7           0        1.021135    0.375392    0.000095
     12         16           0       -0.676815   -1.548972   -0.000154
     13          6           0       -1.312254    1.115633    0.000068
     14          6           0       -2.657362    0.738404    0.000161
     15          6           0       -0.903300    2.466475   -0.000025
     16          6           0       -3.657206    1.696063    0.000140
     17          1           0       -2.925391   -0.320349    0.000266
     18          6           0       -1.941963    3.435135   -0.000067
     19          6           0       -3.281111    3.044854    0.000010
     20          1           0       -4.707381    1.404333    0.000218
     21          1           0       -1.676327    4.493363   -0.000169
     22          1           0       -4.054639    3.815977   -0.000028
     23          6           0       -0.268435    0.115302    0.000030
     24          8           0        0.385113    2.730568   -0.000105
     25          1           0        0.916085    1.794234   -0.000081
 ---------------------------------------------------------------------

 SCF Done:  E(RwB97XD) =  -1028.81734209     A.U. after    1 cycles

 Alpha  occ. eigenvalues --  -89.08633 -19.26396 -14.47858 -10.39464 -10.37058
 Alpha  occ. eigenvalues --  -10.35802 -10.34715 -10.32328 -10.32270 -10.31815
 Alpha  occ. eigenvalues --  -10.31733 -10.31694 -10.31407 -10.31383 -10.30150
 Alpha  occ. eigenvalues --  -10.30049  -8.10854  -6.05689  -6.05326  -6.04907
 Alpha  occ. eigenvalues --   -1.15279  -1.09236  -0.97543  -0.96287  -0.92401
 Alpha  occ. eigenvalues --   -0.88714  -0.85848  -0.84274  -0.83005  -0.75580
 Alpha  occ. eigenvalues --   -0.71654  -0.70883  -0.69320  -0.67890  -0.63487
 Alpha  occ. eigenvalues --   -0.60866  -0.59201  -0.58233  -0.56311  -0.54609
 Alpha  occ. eigenvalues --   -0.54581  -0.53558  -0.52871  -0.50920  -0.50102
 Alpha  occ. eigenvalues --   -0.49322  -0.46866  -0.46246  -0.45421  -0.45158
 Alpha  occ. eigenvalues --   -0.44228  -0.42807  -0.42693  -0.40078  -0.36299
 Alpha  occ. eigenvalues --   -0.36297  -0.32357  -0.31634  -0.28818
 Alpha virt. eigenvalues --   -0.00585   0.04641   0.06590   0.07460   0.08040
 Alpha virt. eigenvalues --    0.11207   0.14817   0.15184   0.17438   0.17992
 Alpha virt. eigenvalues --    0.19081   0.21031   0.21681   0.22422   0.22671

 Mulliken charges:
               1
     1  C    0.021180
     2  C   -0.215829
     3  C    0.236107
     4  C   -0.020516
     5  C    0.002188
     6  C    0.005450
     7  H    0.019247
     8  H    0.023952
     9  H    0.022274
    10  H    0.022457
    11  N   -0.350092
    12  S    0.161139
    13  C   -0.054293
    14  C   -0.033877
    15  C    0.095024
    16  C   -0.010345
    17  H    0.021179
    18  C   -0.013917
    19  C    0.021718
    20  H    0.008013
    21  H    0.014099
    22  H    0.018336
    23  C    0.085215
    24  O   -0.268746
    25  H    0.190037
 Sum of Mulliken charges =  -0.00000

 Dipole moment (field-independent basis, Debye):
    X=              0.0730    Y=             -3.4094    Z=             -0.0000  Tot=              3.4102
 Quadrupole moment (field-independent basis, Debye-Ang):
   XX=            -82.6066   YY=            -91.1810   ZZ=           -103.9225
   XY=             -7.3287   XZ=              0.0001   YZ=              0.0003

  Exact polarizability:     274.366     -69.740     255.400       0.001       0.002      62.794
 Approx polarizability:     261.823     -24.071     242.418       0.002       0.002      82.136

 ******    1 imaginary frequencies (negative Signs) ******

                      1                      2                      3
                      A                      A                      A
 Frequencies --    -42.3424                65.7764               129.9143
 Red. masses --      5.3545                 6.1439                 5.5720
 Frc consts  --      0.0057                 0.0157                 0.0554
 IR Inten    --      0.0367                 1.1865                 8.3851

                      4                      5                      6
                      A                      A                      A
 Frequencies --    150.9673               197.3316               242.8702
 Red. masses --      5.0373                 6.2208                 5.5214
 Frc consts  --      0.0676                 0.1427                 0.1919
 IR Inten    --      0.3956                 0.5503                 0.0821

                      7                      8                      9
                      A                      A                      A
 Frequencies --    282.5090               329.5517               329.7085
 Red. masses --      7.2846                 5.6838                 5.1286
 Frc consts  --      0.3425                 0.3637                 0.3285
 IR Inten    --      2.1966                36.3767                 0.1576

                     10                     11                     12
                      A                      A                      A
 Frequencies --    430.8206               435.1032               461.1163
 Red. masses --     10.7765                 3.0833                 3.5302
 Frc consts  --      1.1785                 0.3439                 0.4422
 IR Inten    --      0.0768                 1.3579                 8.5800

                     13                     14                     15
                      A                      A                      A
 Frequencies --    505.4152               522.4851               536.6605
 Red. masses --      5.6306                 7.8502                 3.4322
 Frc consts  --      0.8474                 1.2626                 0.5824
 IR Inten    --     38.0737                13.5131                 3.3733

                     16                     17                     18
                      A                      A                      A
 Frequencies --    567.2373               576.6019               588.7778
 Red. masses --      7.0572                 3.7303                 7.6067
 Frc consts  --      1.3379                 0.7307                 1.5536
 IR Inten    --      8.8863                 0.0660                 1.4180

                     19                     20                     21
                      A                      A                      A
 Frequencies --    648.1318               686.5878               738.9237
 Red. masses --      6.3792                 6.5046                 6.4642
 Frc consts  --      1.5789                 1.8066                 2.0795
 IR Inten    --      0.0091                 6.3825                20.3208

                     22                     23                     24
                      A                      A                      A
 Frequencies --    756.1665               768.8147               772.5756
 Red. masses --      2.0525                 2.6678                 1.5018
 Frc consts  --      0.6915                 0.9291                 0.5281
 IR Inten    --     27.3219                 6.8135                49.8626

                     25                     26                     27
                      A                      A                      A
 Frequencies --    778.2261               783.9933               858.8909
 Red. masses --      9.2488                 1.8960                 6.1869
 Frc consts  --      3.3002                 0.6866                 2.6890
 IR Inten    --     26.2154                45.7909                11.6139

                     28                     29                     30
                      A                      A                      A
 Frequencies --    879.2674               886.4525               900.7160
 Red. masses --      1.5810                 1.3979                 6.8272
 Frc consts  --      0.7202                 0.6472                 3.2634
 IR Inten    --      5.9039                 0.4129                16.8163

                     31                     32                     33
                      A                      A                      A
 Frequencies --    963.0857               974.8978              1010.4472
 Red. masses --      1.3671                 1.3655                 1.3046
 Frc consts  --      0.7471                 0.7647                 0.7848
 IR Inten    --      1.1345                 1.4881                 0.2166

                     34                     35                     36
                      A                      A                      A
 Frequencies --   1015.5018              1020.0410              1052.6827
 Red. masses --      1.3058                 7.7763                 2.0194
 Frc consts  --      0.7934                 4.7672                 1.3185
 IR Inten    --      0.0007                45.2501                11.1631

                     37                     38                     39
                      A                      A                      A
 Frequencies --   1071.1115              1093.0560              1110.8435
 Red. masses --      1.8595                 1.0582                 3.1621
 Frc consts  --      1.2569                 0.7449                 2.2990
 IR Inten    --      5.0425                72.5500                 5.8389

                     40                     41                     42
                      A                      A                      A
 Frequencies --   1159.1808              1163.1886              1177.7563
 Red. masses --      1.3935                 1.4052                 1.2760
 Frc consts  --      1.1032                 1.1202                 1.0428
 IR Inten    --     14.7563                 3.8023                21.1534

                     43                     44                     45
                      A                      A                      A
 Frequencies --   1186.2661              1261.6937              1275.8398
 Red. masses --      1.3045                 3.0766                 2.2971
 Frc consts  --      1.0816                 2.8855                 2.2031
 IR Inten    --      8.6750                95.0859               243.7324

                     46                     47                     48
                      A                      A                      A
 Frequencies --   1294.4481              1319.9488              1358.9572
 Red. masses --      1.5408                 2.5860                 3.3506
 Frc consts  --      1.5212                 2.6546                 3.6457
 IR Inten    --      5.1874               117.2647                20.8488

                     49                     50                     51
                      A                      A                      A
 Frequencies --   1375.2388              1382.8620              1479.1496
 Red. masses --      3.7204                 6.9987                 3.3660
 Frc consts  --      4.1457                 7.8855                 4.3390
 IR Inten    --     10.7484                 9.4277                 5.4256

                     52                     53                     54
                      A                      A                      A
 Frequencies --   1488.4822              1495.6072              1513.6002
 Red. masses --      2.3251                 2.6023                 3.2513
 Frc consts  --      3.0351                 3.4297                 4.3886
 IR Inten    --    116.2086                 3.2283                26.9190

                     55                     56                     57
                      A                      A                      A
 Frequencies --   1575.1439              1624.5389              1653.1078
 Red. masses --      5.8270                 4.2063                 6.8223
 Frc consts  --      8.5179                 6.5405                10.9845
 IR Inten    --    284.1194                 8.5851                54.5933

                     58                     59                     60
                      A                      A                      A
 Frequencies --   1672.8743              1697.4872              1773.8419
 Red. masses --      6.1994                 6.5735                 1.4880
 Frc consts  --     10.2217                11.1598                 2.7586
 IR Inten    --    191.5090               273.6098               725.4242

                     61                     62                     63
                      A                      A                      A
 Frequencies --   1921.5481              3203.6947              3208.4880
 Red. masses --      1.1838                 1.0863                 1.0904
 Frc consts  --      2.5754                 6.5690                 6.6134
 IR Inten    --   1212.9461                 0.8975                11.6280

                     64                     65                     66
                      A                      A                      A
 Frequencies --   3210.0275              3219.8326              3225.6488
 Red. masses --      1.0862                 1.0905                 1.0939
 Frc consts  --      6.5945                 6.6611                 6.7062
 IR Inten    --      1.6736                 2.1699                16.9091

                     67                     68                     69
                      A                      A                      A
 Frequencies --   3229.0820              3236.7314              3237.4401
 Red. masses --      1.0958                 1.1001                 1.0989
 Frc consts  --      6.7317                 6.7905                 6.7857
 IR Inten    --      8.3084                17.7991                11.9161

 - Thermochemistry -
 -------------------
 Temperature   298.150 Kelvin.  Pressure   1.00000 Atm.
 Atom     1 has atomic number  6 and mass  12.00000

 Molecular mass:   227.04049 amu.
 Principal axes and moments of inertia in atomic units:
                           1         2         3
     Eigenvalues --  1258.969396254.889467513.85883
           X            0.70738   0.70683  -0.00000
           Y           -0.70683   0.70738  -0.00002
           Z           -0.00001   0.00001   1.00000
 This molecule is an asymmetric top.
 Rotational symmetry number  1.
 Warning -- assumption of classical behavior for rotation
           may cause significant error
 Rotational temperatures (Kelvin)      0.06880     0.01385     0.01153
 Rotational constants (GHZ):           1.43351     0.28853     0.24019
    1 imaginary frequencies ignored.
 Zero-point vibrational energy     494924.8 (Joules/Mol)
                                  118.28987 (Kcal/Mol)
 Warning -- explicit consideration of  17 degrees of freedom as
           vibrations may cause significant error
 Vibrational temperatures:     94.64   186.92   217.21   283.92   349.44
          (Kelvin)            406.47   474.15   474.38   619.85   626.02
                              663.44   727.18   751.74   772.13   816.13
                              829.60   847.12   932.52   987.85  1063.15
                             1087.95  1106.15  1111.56  1119.69  1127.99
                             1235.75  1265.07  1275.41  1295.93  1385.67
                             1402.66  1453.81  1461.08  1467.61  1514.58
                             1541.09  1572.66  1598.26  1667.80  1673.57
                             1694.53  1706.77  1815.30  1835.65  1862.42
                             1899.11  1955.24  1978.66  1989.63  2128.17
                             2141.59  2151.85  2177.73  2266.28  2337.35
                             2378.45  2406.89  2442.31  2552.16  2764.68
                             4609.40  4616.30  4618.51  4632.62  4640.99
                             4645.93  4656.93  4657.95

 Zero-point correction=                           0.188507 (Hartree/Particle)
 Thermal correction to Energy=                    0.199188
 Thermal correction to Enthalpy=                  0.200132
 Thermal correction to Gibbs Free Energy=         0.151602
 Sum of electronic and zero-point Energies=          -1028.628835
 Sum of electronic and thermal Energies=             -1028.618154
 Sum of electronic and thermal Enthalpies=           -1028.617210
 Sum of electronic and thermal Free Energies=        -1028.665740

                     E (Thermal)             CV                S
                      KCal/Mol        Cal/Mol-Kelvin    Cal/Mol-Kelvin
 Total                  124.993             44.967            102.141
 Electronic               0.000              0.000              0.000
 Translational            0.889              2.981             42.162
 Rotational               0.889              2.981             32.448
 Vibrational            123.215             39.005             27.531
 Vibration     1          0.597              1.971              4.276
 Vibration     2          0.612              1.923              2.947
 Vibration     3          0.618              1.902              2.660
 Vibration     4          0.637              1.844              2.158
 Vibration     5          0.659              1.775              1.782
 Vibration     6          0.682              1.706              1.518
 Vibration     7          0.712              1.616              1.262
 Vibration     8          0.712              1.616              1.262
 Vibration     9          0.792              1.403              0.856
 Vibration    10          0.796              1.394              0.842
 Vibration    11          0.819              1.336              0.763
 Vibration    12          0.861              1.238              0.645
 Vibration    13          0.877              1.200              0.604
 Vibration    14          0.892              1.169              0.573
 Vibration    15          0.923              1.102              0.510
 Vibration    16          0.933              1.082              0.492
 Vibration    17          0.946              1.056              0.469

 Optimization completed.
    -- Stationary point found.
 Normal termination of Gaussian 16 at Wed Oct 28 02:23:15 2020.
