 Gaussian 16, Revision C.01,
 Gaussian 16:  ES64L-G16RevC.01  3-Jul-2019

 ----------------------------------------------------------------------
 #p opt=addgic freq wb97xd/cc-pvdz nosymm int=ultrafine scrf=(solvent=C
 arbonTetraChloride)
 ----------------------------------------------------------------------

 ------------------------------------------------
 NM 2D-scan of HBT TD-WB97XD pVDZ in CTC Relaxed.
 ------------------------------------------------
 Symbolic Z-matrix:
 Charge =  0 Multiplicity = 1

 SCF Done:  E(RwB97XD) =  -1028.80797012     A.U. after   15 cycles
 SCF Done:  E(RwB97XD) =  -1028.81812044     A.U. after   13 cycles
 SCF Done:  E(RwB97XD) =  -1028.81894344     A.U. after   12 cycles
 SCF Done:  E(RwB97XD) =  -1028.81898811     A.U. after   11 cycles
 SCF Done:  E(RwB97XD) =  -1028.81911135     A.U. after   10 cycles
 SCF Done:  E(RwB97XD) =  -1028.81911423     A.U. after    9 cycles
 SCF Done:  E(RwB97XD) =  -1028.81911368     A.U. after    9 cycles
 SCF Done:  E(RwB97XD) =  -1028.81911462     A.U. after    7 cycles
 Optimization completed.
    -- Stationary point found.
 Normal termination of Gaussian 16 at Wed Oct 28 02:54:45 2020.

 --------------------------------------------------------------------
 #P Geom=AllCheck Guess=TCheck SCRF=Check GenChk RwB97XD/CC-pVDZ Freq
 --------------------------------------------------------------------

 Structure from the checkpoint file:  "config_4_20.chk"
 ------------------------------------------------
 NM 2D-scan of HBT TD-WB97XD pVDZ in CTC Relaxed.
 ------------------------------------------------
 Charge =  0 Multiplicity = 1

                          Input orientation:
 ---------------------------------------------------------------------
 Center     Atomic      Atomic             Coordinates (Angstroms)
 Number     Number       Type             X           Y           Z
 ---------------------------------------------------------------------
      1          6           0        1.494639   -3.245302   -0.000207
      2          6           0        1.009470   -1.943020   -0.000130
      3          6           0        1.818169   -0.795046    0.000037
      4          6           0        3.210638   -0.991295    0.000130
      5          6           0        3.708643   -2.297152    0.000062
      6          6           0        2.867279   -3.420029   -0.000105
      7          1           0        0.807209   -4.091670   -0.000331
      8          1           0        3.892310   -0.139829    0.000266
      9          1           0        4.789726   -2.445369    0.000145
     10          1           0        3.292075   -4.424559   -0.000151
     11          7           0        1.056302    0.387486    0.000120
     12         16           0       -0.669146   -1.522330   -0.000190
     13          6           0       -1.293147    1.128054    0.000103
     14          6           0       -2.631268    0.724007    0.000215
     15          6           0       -0.922345    2.485914   -0.000036
     16          6           0       -3.651975    1.658903    0.000166
     17          1           0       -2.880358   -0.338827    0.000350
     18          6           0       -1.976215    3.433205   -0.000105
     19          6           0       -3.307482    3.015172   -0.000009
     20          1           0       -4.695003    1.342557    0.000255
     21          1           0       -1.731504    4.496376   -0.000237
     22          1           0       -4.097192    3.769535   -0.000067
     23          6           0       -0.233789    0.138423    0.000054
     24          8           0        0.364644    2.787552   -0.000136
     25          1           0        0.904181    1.893794   -0.000079
 ---------------------------------------------------------------------

 SCF Done:  E(RwB97XD) =  -1028.81911462     A.U. after    1 cycles

 Alpha  occ. eigenvalues --  -89.08403 -19.27214 -14.47637 -10.39315 -10.37228
 Alpha  occ. eigenvalues --  -10.35621 -10.34549 -10.32209 -10.32151 -10.31761
 Alpha  occ. eigenvalues --  -10.31703 -10.31642 -10.31583 -10.31511 -10.30353
 Alpha  occ. eigenvalues --  -10.30193  -8.10639  -6.05471  -6.05108  -6.04693
 Alpha  occ. eigenvalues --   -1.15835  -1.09010  -0.97454  -0.96398  -0.92278
 Alpha  occ. eigenvalues --   -0.88664  -0.85749  -0.84488  -0.82937  -0.75532
 Alpha  occ. eigenvalues --   -0.71692  -0.70833  -0.69376  -0.67872  -0.63464
 Alpha  occ. eigenvalues --   -0.60796  -0.59087  -0.58418  -0.56438  -0.54590
 Alpha  occ. eigenvalues --   -0.54424  -0.53529  -0.52947  -0.50853  -0.50271
 Alpha  occ. eigenvalues --   -0.49188  -0.46999  -0.46126  -0.45522  -0.45124
 Alpha  occ. eigenvalues --   -0.44180  -0.42891  -0.42616  -0.39934  -0.36833
 Alpha  occ. eigenvalues --   -0.36270  -0.32207  -0.31679  -0.29069
 Alpha virt. eigenvalues --   -0.00534   0.04745   0.06624   0.07264   0.08245
 Alpha virt. eigenvalues --    0.11259   0.14762   0.15260   0.17570   0.18035
 Alpha virt. eigenvalues --    0.19108   0.21141   0.21603   0.22534   0.22615

 Mulliken charges:
               1
     1  C    0.021074
     2  C   -0.210413
     3  C    0.222215
     4  C   -0.022362
     5  C    0.001217
     6  C    0.005111
     7  H    0.018553
     8  H    0.022692
     9  H    0.021437
    10  H    0.021888
    11  N   -0.362729
    12  S    0.155877
    13  C   -0.045441
    14  C   -0.036620
    15  C    0.085508
    16  C   -0.007395
    17  H    0.024775
    18  C   -0.009864
    19  C    0.021599
    20  H    0.008938
    21  H    0.016000
    22  H    0.019054
    23  C    0.089222
    24  O   -0.242786
    25  H    0.182451
 Sum of Mulliken charges =  -0.00000

 Dipole moment (field-independent basis, Debye):
    X=             -0.1631    Y=             -3.1259    Z=             -0.0000  Tot=              3.1301
 Quadrupole moment (field-independent basis, Debye-Ang):
   XX=            -82.6325   YY=            -90.8133   ZZ=           -103.9421
   XY=             -7.3829   XZ=              0.0002   YZ=              0.0004

  Exact polarizability:     273.126     -68.631     253.694       0.002       0.002      62.798
 Approx polarizability:     261.179     -23.422     241.600       0.003       0.002      82.142

 ******    1 imaginary frequencies (negative Signs) ******

                      1                      2                      3
                      A                      A                      A
 Frequencies --    -46.3259                65.4476               131.3168
 Red. masses --      5.4341                 6.0812                 5.6231
 Frc consts  --      0.0069                 0.0153                 0.0571
 IR Inten    --      0.0225                 1.1690                 3.2614

                      4                      5                      6
                      A                      A                      A
 Frequencies --    150.6292               196.9619               243.6215
 Red. masses --      5.0048                 6.1852                 5.4680
 Frc consts  --      0.0669                 0.1414                 0.1912
 IR Inten    --      0.2629                 0.7038                 0.0393

                      7                      8                      9
                      A                      A                      A
 Frequencies --    281.2306               329.4695               330.8295
 Red. masses --      7.3453                 6.1691                 5.0936
 Frc consts  --      0.3423                 0.3946                 0.3285
 IR Inten    --      0.7580                14.2642                 0.0199

                     10                     11                     12
                      A                      A                      A
 Frequencies --    430.9685               435.8485               462.9693
 Red. masses --     10.6839                 3.0761                 3.5430
 Frc consts  --      1.1691                 0.3443                 0.4474
 IR Inten    --      0.0652                 1.4209                 8.3786

                     13                     14                     15
                      A                      A                      A
 Frequencies --    514.7625               525.8823               536.0912
 Red. masses --      7.1026                 6.8668                 3.4546
 Frc consts  --      1.1089                 1.1189                 0.5850
 IR Inten    --      6.3095                15.5424                 3.3931

                     16                     17                     18
                      A                      A                      A
 Frequencies --    565.0800               577.4330               589.3311
 Red. masses --      6.9720                 3.7504                 7.5559
 Frc consts  --      1.3117                 0.7368                 1.5462
 IR Inten    --      5.6024                 0.0461                 2.1692

                     19                     20                     21
                      A                      A                      A
 Frequencies --    647.7763               683.1380               741.6316
 Red. masses --      6.3261                 6.6363                 6.4362
 Frc consts  --      1.5640                 1.8247                 2.0857
 IR Inten    --      0.0110                 3.9575                14.9864

                     22                     23                     24
                      A                      A                      A
 Frequencies --    756.8065               767.8466               772.4867
 Red. masses --      2.0063                 3.4190                 1.3380
 Frc consts  --      0.6770                 1.1877                 0.4704
 IR Inten    --     29.5334                 0.4319                55.5371

                     25                     26                     27
                      A                      A                      A
 Frequencies --    772.9854               785.2025               855.9301
 Red. masses --      9.4802                 1.9303                 5.9838
 Frc consts  --      3.3374                 0.7012                 2.5829
 IR Inten    --     23.9540                44.7594                13.5225

                     28                     29                     30
                      A                      A                      A
 Frequencies --    879.6443               886.6462               893.5227
 Red. masses --      1.5679                 1.4035                 6.8734
 Frc consts  --      0.7148                 0.6501                 3.2332
 IR Inten    --      5.6088                 0.3841                 7.5762

                     31                     32                     33
                      A                      A                      A
 Frequencies --    964.0251               975.1358              1010.3696
 Red. masses --      1.3687                 1.3668                 1.3014
 Frc consts  --      0.7494                 0.7657                 0.7827
 IR Inten    --      1.3455                 1.3780                 0.0778

                     34                     35                     36
                      A                      A                      A
 Frequencies --   1015.5965              1019.2541              1025.7053
 Red. masses --      1.3049                 7.8041                 1.0659
 Frc consts  --      0.7930                 4.7768                 0.6607
 IR Inten    --      0.1442                37.3717                75.0649

                     37                     38                     39
                      A                      A                      A
 Frequencies --   1052.4453              1067.3087              1112.1838
 Red. masses --      2.0169                 1.8530                 3.0680
 Frc consts  --      1.3162                 1.2437                 2.2360
 IR Inten    --      9.6283                 7.8014                 4.8588

                     40                     41                     42
                      A                      A                      A
 Frequencies --   1157.3009              1163.7979              1174.8548
 Red. masses --      1.4299                 1.3905                 1.1457
 Frc consts  --      1.1284                 1.1096                 0.9317
 IR Inten    --      9.7797                 1.8535                37.6158

                     43                     44                     45
                      A                      A                      A
 Frequencies --   1185.8689              1256.7349              1275.6503
 Red. masses --      1.3293                 2.2101                 3.1369
 Frc consts  --      1.1014                 2.0566                 3.0076
 IR Inten    --      1.9577                37.7330               126.1983

                     46                     47                     48
                      A                      A                      A
 Frequencies --   1292.4076              1310.9985              1362.1250
 Red. masses --      1.7164                 2.3430                 3.1576
 Frc consts  --      1.6892                 2.3726                 3.4518
 IR Inten    --     74.6447                88.8649                31.7974

                     49                     50                     51
                      A                      A                      A
 Frequencies --   1372.4464              1382.5596              1479.4080
 Red. masses --      5.3022                 8.0422                 2.6913
 Frc consts  --      5.8843                 9.0572                 3.4704
 IR Inten    --     13.6466                 1.2919                23.5084

                     52                     53                     54
                      A                      A                      A
 Frequencies --   1491.7142              1501.9001              1535.8417
 Red. masses --      2.6194                 2.7952                 4.0895
 Frc consts  --      3.4342                 3.7149                 5.6835
 IR Inten    --     22.7584                30.8406                86.3433

                     55                     56                     57
                      A                      A                      A
 Frequencies --   1574.5056              1625.3912              1651.2359
 Red. masses --      6.9009                 3.3503                 6.9286
 Frc consts  --     10.0797                 5.2149                11.1304
 IR Inten    --    272.1388                10.4938                10.5643

                     58                     59                     60
                      A                      A                      A
 Frequencies --   1676.0696              1696.0402              1752.6244
 Red. masses --      6.7295                 6.9690                 1.4035
 Frc consts  --     11.1382                11.8112                 2.5401
 IR Inten    --     44.8571               183.6003               215.6059

                     61                     62                     63
                      A                      A                      A
 Frequencies --   2390.9667              3205.9453              3209.5522
 Red. masses --      1.0992                 1.0862                 1.0861
 Frc consts  --      3.7022                 6.5777                 6.5920
 IR Inten    --   1638.4660                 0.4792                 1.2755

                     64                     65                     66
                      A                      A                      A
 Frequencies --   3211.4039              3219.0521              3226.4009
 Red. masses --      1.0906                 1.0905                 1.0941
 Frc consts  --      6.6268                 6.6576                 6.7106
 IR Inten    --      9.9547                 2.1026                15.5789

                     67                     68                     69
                      A                      A                      A
 Frequencies --   3228.2522              3236.1461              3238.5319
 Red. masses --      1.0958                 1.1001                 1.0989
 Frc consts  --      6.7285                 6.7882                 6.7908
 IR Inten    --      9.3663                16.9101                12.9996

 - Thermochemistry -
 -------------------
 Temperature   298.150 Kelvin.  Pressure   1.00000 Atm.
 Atom     1 has atomic number  6 and mass  12.00000

 Molecular mass:   227.04049 amu.
 Principal axes and moments of inertia in atomic units:
                           1         2         3
     Eigenvalues --  1258.963766273.517817532.48154
           X           -0.70561   0.70860  -0.00000
           Y            0.70860   0.70561  -0.00002
           Z            0.00001   0.00002   1.00000
 This molecule is an asymmetric top.
 Rotational symmetry number  1.
 Warning -- assumption of classical behavior for rotation
           may cause significant error
 Rotational temperatures (Kelvin)      0.06880     0.01381     0.01150
 Rotational constants (GHZ):           1.43351     0.28768     0.23959
    1 imaginary frequencies ignored.
 Zero-point vibrational energy     497283.1 (Joules/Mol)
                                  118.85351 (Kcal/Mol)
 Warning -- explicit consideration of  17 degrees of freedom as
           vibrations may cause significant error
 Vibrational temperatures:     94.16   188.94   216.72   283.38   350.52
          (Kelvin)            404.63   474.03   475.99   620.07   627.09
                              666.11   740.63   756.63   771.32   813.02
                              830.80   847.92   932.01   982.88  1067.04
                             1088.88  1104.76  1111.44  1112.15  1129.73
                             1231.49  1265.61  1275.69  1285.58  1387.02
                             1403.00  1453.70  1461.22  1466.48  1475.76
                             1514.23  1535.62  1600.18  1665.10  1674.45
                             1690.35  1706.20  1808.16  1835.38  1859.49
                             1886.23  1959.79  1974.64  1989.19  2128.54
                             2146.24  2160.90  2209.73  2265.36  2338.58
                             2375.76  2411.49  2440.22  2521.64  3440.07
                             4612.64  4617.83  4620.49  4631.50  4642.07
                             4644.73  4656.09  4659.53

 Zero-point correction=                           0.189405 (Hartree/Particle)
 Thermal correction to Energy=                    0.200087
 Thermal correction to Enthalpy=                  0.201031
 Thermal correction to Gibbs Free Energy=         0.152502
 Sum of electronic and zero-point Energies=          -1028.629709
 Sum of electronic and thermal Energies=             -1028.619028
 Sum of electronic and thermal Enthalpies=           -1028.618084
 Sum of electronic and thermal Free Energies=        -1028.666613

                     E (Thermal)             CV                S
                      KCal/Mol        Cal/Mol-Kelvin    Cal/Mol-Kelvin
 Total                  125.556             45.016            102.138
 Electronic               0.000              0.000              0.000
 Translational            0.889              2.981             42.162
 Rotational               0.889              2.981             32.453
 Vibrational            123.779             39.054             27.522
 Vibration     1          0.597              1.971              4.286
 Vibration     2          0.612              1.922              2.927
 Vibration     3          0.618              1.902              2.664
 Vibration     4          0.636              1.844              2.161
 Vibration     5          0.659              1.773              1.776
 Vibration     6          0.681              1.708              1.526
 Vibration     7          0.712              1.617              1.263
 Vibration     8          0.713              1.614              1.256
 Vibration     9          0.792              1.403              0.855
 Vibration    10          0.796              1.392              0.840
 Vibration    11          0.821              1.332              0.758
 Vibration    12          0.870              1.217              0.622
 Vibration    13          0.881              1.193              0.596
 Vibration    14          0.891              1.170              0.574
 Vibration    15          0.921              1.107              0.514
 Vibration    16          0.934              1.080              0.490
 Vibration    17          0.947              1.055              0.468

 Optimization completed.
    -- Stationary point found.
 Normal termination of Gaussian 16 at Wed Oct 28 03:02:56 2020.
