 Gaussian 16, Revision C.01,
 Gaussian 16:  ES64L-G16RevC.01  3-Jul-2019

 ----------------------------------------------------------------------
 #p opt=addgic freq wb97xd/cc-pvdz nosymm int=ultrafine scrf=(solvent=C
 arbonTetraChloride)
 ----------------------------------------------------------------------

 ------------------------------------------------
 NM 2D-scan of HBT TD-WB97XD pVDZ in CTC Relaxed.
 ------------------------------------------------
 Symbolic Z-matrix:
 Charge =  0 Multiplicity = 1

 SCF Done:  E(RwB97XD) =  -1028.81452348     A.U. after   15 cycles
 SCF Done:  E(RwB97XD) =  -1028.82107288     A.U. after   13 cycles
 SCF Done:  E(RwB97XD) =  -1028.82004188     A.U. after   13 cycles
 SCF Done:  E(RwB97XD) =  -1028.82286417     A.U. after   12 cycles
 SCF Done:  E(RwB97XD) =  -1028.82290625     A.U. after   10 cycles
 SCF Done:  E(RwB97XD) =  -1028.82291042     A.U. after   10 cycles
 SCF Done:  E(RwB97XD) =  -1028.82291243     A.U. after    9 cycles
 Optimization completed.
    -- Stationary point found.
 Normal termination of Gaussian 16 at Tue Oct 27 22:29:08 2020.

 --------------------------------------------------------------------
 #P Geom=AllCheck Guess=TCheck SCRF=Check GenChk RwB97XD/CC-pVDZ Freq
 --------------------------------------------------------------------

 Structure from the checkpoint file:  "config_6_7.chk"
 ------------------------------------------------
 NM 2D-scan of HBT TD-WB97XD pVDZ in CTC Relaxed.
 ------------------------------------------------
 Charge =  0 Multiplicity = 1

                          Input orientation:
 ---------------------------------------------------------------------
 Center     Atomic      Atomic             Coordinates (Angstroms)
 Number     Number       Type             X           Y           Z
 ---------------------------------------------------------------------
      1          6           0        1.674545   -3.262053   -0.000037
      2          6           0        1.003047   -2.039923    0.000012
      3          6           0        1.702020   -0.826736    0.000003
      4          6           0        3.100997   -0.812170   -0.000051
      5          6           0        3.769817   -2.029330   -0.000096
      6          6           0        3.064414   -3.242305   -0.000091
      7          1           0        1.127342   -4.204939   -0.000035
      8          1           0        3.638208    0.136567   -0.000056
      9          1           0        4.860610   -2.042715   -0.000139
     10          1           0        3.612368   -4.185465   -0.000131
     11          7           0        0.866720    0.269833    0.000045
     12         16           0       -0.729136   -1.731916    0.000077
     13          6           0       -1.388131    1.066018    0.000091
     14          6           0       -2.773459    0.854230    0.000054
     15          6           0       -0.860060    2.393287    0.000079
     16          6           0       -3.660178    1.920962   -0.000019
     17          1           0       -3.156302   -0.169721    0.000062
     18          6           0       -1.784534    3.463400   -0.000014
     19          6           0       -3.150848    3.227169   -0.000060
     20          1           0       -4.735757    1.743888   -0.000056
     21          1           0       -1.386975    4.479192   -0.000026
     22          1           0       -3.839372    4.074820   -0.000120
     23          6           0       -0.412478   -0.014458    0.000098
     24          8           0        0.433625    2.615318    0.000180
     25          1           0        0.901124    1.650912    0.000324
 ---------------------------------------------------------------------

 SCF Done:  E(RwB97XD) =  -1028.82291243     A.U. after    1 cycles

 Alpha  occ. eigenvalues --  -89.09191 -19.25869 -14.47462 -10.39879 -10.36928
 Alpha  occ. eigenvalues --  -10.35421 -10.35122 -10.32617 -10.32042 -10.31843
 Alpha  occ. eigenvalues --  -10.31812 -10.31794 -10.31676 -10.31175 -10.29880
 Alpha  occ. eigenvalues --  -10.29681  -8.11223  -6.06082  -6.05716  -6.05269
 Alpha  occ. eigenvalues --   -1.15222  -1.09533  -0.97535  -0.95880  -0.92023
 Alpha  occ. eigenvalues --   -0.88734  -0.85601  -0.84163  -0.83047  -0.75643
 Alpha  occ. eigenvalues --   -0.71483  -0.70566  -0.69233  -0.68393  -0.63321
 Alpha  occ. eigenvalues --   -0.60804  -0.59134  -0.58019  -0.56140  -0.54628
 Alpha  occ. eigenvalues --   -0.54517  -0.53454  -0.52521  -0.51070  -0.49945
 Alpha  occ. eigenvalues --   -0.49717  -0.47283  -0.46203  -0.45290  -0.45122
 Alpha  occ. eigenvalues --   -0.43974  -0.42978  -0.42475  -0.40118  -0.36289
 Alpha  occ. eigenvalues --   -0.35770  -0.32544  -0.31559  -0.28519
 Alpha virt. eigenvalues --   -0.00620   0.04543   0.06821   0.07494   0.07641
 Alpha virt. eigenvalues --    0.11180   0.14047   0.15035   0.16328   0.17861
 Alpha virt. eigenvalues --    0.19081   0.20829   0.21767   0.22462   0.22693

 Mulliken charges:
               1
     1  C    0.011803
     2  C   -0.230853
     3  C    0.261295
     4  C   -0.012089
     5  C    0.007234
     6  C    0.002021
     7  H    0.020623
     8  H    0.023205
     9  H    0.022262
    10  H    0.022989
    11  N   -0.325171
    12  S    0.161020
    13  C   -0.085795
    14  C   -0.017806
    15  C    0.092675
    16  C   -0.014971
    17  H    0.008806
    18  C   -0.004352
    19  C    0.022070
    20  H    0.007730
    21  H    0.011861
    22  H    0.016954
    23  C    0.080607
    24  O   -0.264819
    25  H    0.182703
 Sum of Mulliken charges =  -0.00000

 Dipole moment (field-independent basis, Debye):
    X=              0.4456    Y=             -3.2850    Z=             -0.0000  Tot=              3.3151
 Quadrupole moment (field-independent basis, Debye-Ang):
   XX=            -82.7208   YY=            -90.9050   ZZ=           -104.0245
   XY=             -7.1830   XZ=              0.0000   YZ=             -0.0002

  Exact polarizability:     276.715     -69.662     258.934      -0.001       0.001      62.929
 Approx polarizability:     263.572     -24.674     244.132      -0.001       0.000      82.183

                      1                      2                      3
                      A                      A                      A
 Frequencies --     21.8631                64.9564               125.7753
 Red. masses --      5.3899                 6.1082                 5.5645
 Frc consts  --      0.0015                 0.0152                 0.0519
 IR Inten    --      0.0220                 1.4427                 3.7335

                      4                      5                      6
                      A                      A                      A
 Frequencies --    153.1798               197.6728               243.8001
 Red. masses --      5.0454                 5.9337                 5.7590
 Frc consts  --      0.0698                 0.1366                 0.2017
 IR Inten    --      0.2463                 0.4165                 0.1405

                      7                      8                      9
                      A                      A                      A
 Frequencies --    274.0368               326.7190               339.7896
 Red. masses --      7.3096                 5.1914                 5.7124
 Frc consts  --      0.3234                 0.3265                 0.3886
 IR Inten    --      0.8980                 0.3350                27.4439

                     10                     11                     12
                      A                      A                      A
 Frequencies --    414.5738               435.9291               461.6042
 Red. masses --     10.4130                 3.1284                 3.6379
 Frc consts  --      1.0545                 0.3503                 0.4567
 IR Inten    --      0.4500                 2.0306                 8.2409

                     13                     14                     15
                      A                      A                      A
 Frequencies --    512.4980               521.3569               539.5061
 Red. masses --      6.5062                 6.1859                 3.4343
 Frc consts  --      1.0068                 0.9907                 0.5889
 IR Inten    --     18.7580                33.2646                 3.6276

                     16                     17                     18
                      A                      A                      A
 Frequencies --    559.8998               574.0834               591.3695
 Red. masses --      7.0790                 3.6775                 7.6709
 Frc consts  --      1.3075                 0.7141                 1.5806
 IR Inten    --     11.2198                 0.0972                 2.1954

                     19                     20                     21
                      A                      A                      A
 Frequencies --    648.8870               688.4008               719.0471
 Red. masses --      6.4372                 6.2975                 6.6256
 Frc consts  --      1.5969                 1.7583                 2.0183
 IR Inten    --      0.0156                14.1916                24.1143

                     22                     23                     24
                      A                      A                      A
 Frequencies --    755.4366               765.7607               768.5635
 Red. masses --      2.1392                 9.9061                 2.4107
 Frc consts  --      0.7193                 3.4225                 0.8390
 IR Inten    --     22.2557                16.1382                 9.6366

                     25                     26                     27
                      A                      A                      A
 Frequencies --    776.0597               784.6734               851.7432
 Red. masses --      1.5740                 1.8102                 5.9914
 Frc consts  --      0.5585                 0.6567                 2.5609
 IR Inten    --     55.2070                40.1930                15.1682

                     28                     29                     30
                      A                      A                      A
 Frequencies --    882.3277               886.7216               914.7821
 Red. masses --      1.5870                 1.4049                 6.6873
 Frc consts  --      0.7279                 0.6508                 3.2971
 IR Inten    --      5.5344                 0.3504                 4.5280

                     31                     32                     33
                      A                      A                      A
 Frequencies --    969.3116               975.9662              1003.7395
 Red. masses --      1.3538                 1.3613                 7.2543
 Frc consts  --      0.7494                 0.7640                 4.3061
 IR Inten    --      1.1659                 1.0866                65.9150

                     34                     35                     36
                      A                      A                      A
 Frequencies --   1010.5163              1016.5897              1053.9229
 Red. masses --      1.3007                 1.3046                 2.0177
 Frc consts  --      0.7826                 0.7944                 1.3205
 IR Inten    --      0.1985                 0.0033                 9.9504

                     37                     38                     39
                      A                      A                      A
 Frequencies --   1065.8186              1099.5510              1100.4899
 Red. masses --      1.9194                 1.0618                 4.0038
 Frc consts  --      1.2847                 0.7564                 2.8569
 IR Inten    --      7.5083                70.1890                 4.2460

                     40                     41                     42
                      A                      A                      A
 Frequencies --   1148.2389              1154.7052              1170.6118
 Red. masses --      1.4683                 1.3247                 1.1734
 Frc consts  --      1.1406                 1.0407                 0.9474
 IR Inten    --     24.4519                 2.7642                29.1961

                     43                     44                     45
                      A                      A                      A
 Frequencies --   1185.3020              1256.6183              1281.3319
 Red. masses --      1.1869                 1.7501                 2.8634
 Frc consts  --      0.9825                 1.6283                 2.7698
 IR Inten    --      0.3619               152.9520                51.9578

                     46                     47                     48
                      A                      A                      A
 Frequencies --   1291.0467              1312.1762              1359.0887
 Red. masses --      1.6184                 3.0473                 5.3055
 Frc consts  --      1.5893                 3.0914                 5.7739
 IR Inten    --     12.8372               297.4477                 0.0852

                     49                     50                     51
                      A                      A                      A
 Frequencies --   1379.8549              1384.5715              1442.2460
 Red. masses --      4.7801                 3.7348                 2.3413
 Frc consts  --      5.3624                 4.2184                 2.8694
 IR Inten    --      8.0963                18.1937                24.1262

                     52                     53                     54
                      A                      A                      A
 Frequencies --   1493.2576              1499.9147              1522.3584
 Red. masses --      2.7534                 2.7840                 3.9657
 Frc consts  --      3.6174                 3.6903                 5.4150
 IR Inten    --     13.3827                30.4337                73.9594

                     55                     56                     57
                      A                      A                      A
 Frequencies --   1578.6535              1606.5462              1656.8952
 Red. masses --      6.5279                 3.5939                 6.2558
 Frc consts  --      9.5852                 5.4651                10.1187
 IR Inten    --    291.0575                52.6148               126.1651

                     58                     59                     60
                      A                      A                      A
 Frequencies --   1667.3280              1698.4012              1724.4494
 Red. masses --      5.5125                 6.8537                 2.0483
 Frc consts  --      9.0290                11.6481                 3.5888
 IR Inten    --    341.2205               244.1213               543.9816

                     61                     62                     63
                      A                      A                      A
 Frequencies --   2026.2498              3192.5959              3203.2327
 Red. masses --      1.1352                 1.0893                 1.0885
 Frc consts  --      2.7460                 6.5416                 6.5807
 IR Inten    --   1165.3418                 4.0814                 7.2838

                     64                     65                     66
                      A                      A                      A
 Frequencies --   3213.6743              3225.0823              3225.5796
 Red. masses --      1.0865                 1.0908                 1.0939
 Frc consts  --      6.6110                 6.6848                 6.7057
 IR Inten    --      2.2647                 3.7549                13.6538

                     67                     68                     69
                      A                      A                      A
 Frequencies --   3235.5048              3235.9415              3241.4563
 Red. masses --      1.0981                 1.0960                 1.0996
 Frc consts  --      6.7729                 6.7618                 6.8071
 IR Inten    --     18.1758                 8.4113                12.0500

 - Thermochemistry -
 -------------------
 Temperature   298.150 Kelvin.  Pressure   1.00000 Atm.
 Atom     1 has atomic number  6 and mass  12.00000

 Molecular mass:   227.04049 amu.
 Principal axes and moments of inertia in atomic units:
                           1         2         3
     Eigenvalues --  1298.161036266.730697564.89171
           X           -0.70544   0.70877   0.00001
           Y            0.70877   0.70544  -0.00001
           Z            0.00001   0.00000   1.00000
 This molecule is an asymmetric top.
 Rotational symmetry number  1.
 Warning -- assumption of classical behavior for rotation
           may cause significant error
 Rotational temperatures (Kelvin)      0.06672     0.01382     0.01145
 Rotational constants (GHZ):           1.39023     0.28799     0.23857
 Zero-point vibrational energy     494714.7 (Joules/Mol)
                                  118.23965 (Kcal/Mol)
 Warning -- explicit consideration of  18 degrees of freedom as
           vibrations may cause significant error
 Vibrational temperatures:     31.46    93.46   180.96   220.39   284.41
          (Kelvin)            350.77   394.28   470.08   488.88   596.48
                              627.20   664.15   737.37   750.12   776.23
                              805.57   825.98   850.85   933.60   990.46
                             1034.55  1086.90  1101.76  1105.79  1116.58
                             1128.97  1225.47  1269.47  1275.79  1316.17
                             1394.62  1404.20  1444.16  1453.91  1462.65
                             1516.36  1533.48  1582.01  1583.36  1652.06
                             1661.36  1684.25  1705.39  1807.99  1843.55
                             1857.53  1887.93  1955.43  1985.30  1992.09
                             2075.07  2148.46  2158.04  2190.33  2271.33
                             2311.46  2383.90  2398.91  2443.62  2481.10
                             2915.32  4593.43  4608.74  4623.76  4640.17
                             4640.89  4655.17  4655.80  4663.73

 Zero-point correction=                           0.188427 (Hartree/Particle)
 Thermal correction to Energy=                    0.200034
 Thermal correction to Enthalpy=                  0.200978
 Thermal correction to Gibbs Free Energy=         0.149292
 Sum of electronic and zero-point Energies=          -1028.634486
 Sum of electronic and thermal Energies=             -1028.622878
 Sum of electronic and thermal Enthalpies=           -1028.621934
 Sum of electronic and thermal Free Energies=        -1028.673621

                     E (Thermal)             CV                S
                      KCal/Mol        Cal/Mol-Kelvin    Cal/Mol-Kelvin
 Total                  125.523             47.063            108.783
 Electronic               0.000              0.000              0.000
 Translational            0.889              2.981             42.162
 Rotational               0.889              2.981             32.487
 Vibrational            123.746             41.101             34.134
 Vibration     1          0.593              1.985              6.457
 Vibration     2          0.597              1.971              4.301
 Vibration     3          0.611              1.927              3.010
 Vibration     4          0.619              1.899              2.632
 Vibration     5          0.637              1.843              2.155
 Vibration     6          0.659              1.773              1.775
 Vibration     7          0.676              1.721              1.571
 Vibration     8          0.710              1.622              1.276
 Vibration     9          0.720              1.596              1.213
 Vibration    10          0.778              1.439              0.911
 Vibration    11          0.796              1.392              0.840
 Vibration    12          0.819              1.335              0.761
 Vibration    13          0.868              1.222              0.628
 Vibration    14          0.876              1.203              0.607
 Vibration    15          0.895              1.163              0.566
 Vibration    16          0.916              1.118              0.524
 Vibration    17          0.930              1.087              0.496
 Vibration    18          0.949              1.050              0.465

 Optimization completed.
    -- Stationary point found.
 Normal termination of Gaussian 16 at Tue Oct 27 22:35:25 2020.
