 Gaussian 16, Revision C.01,
 Gaussian 16:  ES64L-G16RevC.01  3-Jul-2019

 ----------------------------------------------------------------------
 #p opt=addgic freq wb97xd/cc-pvdz nosymm int=ultrafine scrf=(solvent=C
 arbonTetraChloride)
 ----------------------------------------------------------------------

 ------------------------------------------------
 NM 2D-scan of HBT TD-WB97XD pVDZ in CTC Relaxed.
 ------------------------------------------------
 Symbolic Z-matrix:
 Charge =  0 Multiplicity = 1

 SCF Done:  E(RwB97XD) =  -1028.81121584     A.U. after   15 cycles
 SCF Done:  E(RwB97XD) =  -1028.82745405     A.U. after   13 cycles
 SCF Done:  E(RwB97XD) =  -1028.82875335     A.U. after   12 cycles
 SCF Done:  E(RwB97XD) =  -1028.82885401     A.U. after   11 cycles
 SCF Done:  E(RwB97XD) =  -1028.82886182     A.U. after    9 cycles
 SCF Done:  E(RwB97XD) =  -1028.82886319     A.U. after    9 cycles
 Optimization completed.
    -- Stationary point found.
 Normal termination of Gaussian 16 at Wed Oct 28 01:08:21 2020.

 --------------------------------------------------------------------
 #P Geom=AllCheck Guess=TCheck SCRF=Check GenChk RwB97XD/CC-pVDZ Freq
 --------------------------------------------------------------------

 Structure from the checkpoint file:  "config_3_16.chk"
 ------------------------------------------------
 NM 2D-scan of HBT TD-WB97XD pVDZ in CTC Relaxed.
 ------------------------------------------------
 Charge =  0 Multiplicity = 1

                          Input orientation:
 ---------------------------------------------------------------------
 Center     Atomic      Atomic             Coordinates (Angstroms)
 Number     Number       Type             X           Y           Z
 ---------------------------------------------------------------------
      1          6           0        1.554640   -3.277431   -0.000051
      2          6           0        0.991539   -2.002846   -0.000031
      3          6           0        1.765925   -0.829197   -0.000002
      4          6           0        3.163735   -0.943769    0.000008
      5          6           0        3.731326   -2.214148   -0.000011
      6          6           0        2.938399   -3.372891   -0.000040
      7          1           0        0.924907   -4.167535   -0.000074
      8          1           0        3.785330   -0.047685    0.000032
      9          1           0        4.818027   -2.311605   -0.000002
     10          1           0        3.412499   -4.355336   -0.000054
     11          7           0        1.008744    0.339421    0.000019
     12         16           0       -0.702296   -1.601384   -0.000036
     13          6           0       -1.309358    1.115781    0.000027
     14          6           0       -2.668687    0.771157    0.000046
     15          6           0       -0.919106    2.474293    0.000017
     16          6           0       -3.653144    1.744254    0.000051
     17          1           0       -2.958439   -0.281923    0.000059
     18          6           0       -1.928905    3.456035    0.000017
     19          6           0       -3.269615    3.090962    0.000033
     20          1           0       -4.706335    1.463557    0.000067
     21          1           0       -1.631213    4.505346    0.000004
     22          1           0       -4.033400    3.871115    0.000033
     23          6           0       -0.275719    0.090085    0.000009
     24          8           0        0.365428    2.818378    0.000000
     25          1           0        0.906433    1.967785   -0.000008
 ---------------------------------------------------------------------

 SCF Done:  E(RwB97XD) =  -1028.82886319     A.U. after    1 cycles

 Alpha  occ. eigenvalues --  -89.08495 -19.27907 -14.47192 -10.39334 -10.37357
 Alpha  occ. eigenvalues --  -10.35148 -10.34646 -10.32235 -10.32029 -10.31848
 Alpha  occ. eigenvalues --  -10.31795 -10.31586 -10.31511 -10.31487 -10.30267
 Alpha  occ. eigenvalues --  -10.30265  -8.10616  -6.05460  -6.05102  -6.04669
 Alpha  occ. eigenvalues --   -1.16355  -1.08903  -0.97338  -0.96294  -0.91871
 Alpha  occ. eigenvalues --   -0.88609  -0.85516  -0.84606  -0.82913  -0.75497
 Alpha  occ. eigenvalues --   -0.71558  -0.70651  -0.69418  -0.68105  -0.63300
 Alpha  occ. eigenvalues --   -0.60606  -0.58889  -0.58467  -0.56474  -0.54555
 Alpha  occ. eigenvalues --   -0.54158  -0.53285  -0.52928  -0.50822  -0.50375
 Alpha  occ. eigenvalues --   -0.49261  -0.47451  -0.45976  -0.45478  -0.45050
 Alpha  occ. eigenvalues --   -0.44047  -0.42981  -0.42561  -0.39809  -0.37200
 Alpha  occ. eigenvalues --   -0.36229  -0.32096  -0.31732  -0.29147
 Alpha virt. eigenvalues --   -0.00478   0.04838   0.06773   0.07157   0.08020
 Alpha virt. eigenvalues --    0.11387   0.14516   0.15231   0.17033   0.18070
 Alpha virt. eigenvalues --    0.18935   0.21053   0.21609   0.22571   0.22721

 Mulliken charges:
               1
     1  C    0.015165
     2  C   -0.211764
     3  C    0.218954
     4  C   -0.017910
     5  C    0.003702
     6  C    0.002263
     7  H    0.018205
     8  H    0.019492
     9  H    0.020177
    10  H    0.021408
    11  N   -0.356460
    12  S    0.148770
    13  C   -0.046988
    14  C   -0.031318
    15  C    0.069846
    16  C   -0.005892
    17  H    0.020072
    18  C    0.002940
    19  C    0.021236
    20  H    0.009620
    21  H    0.016727
    22  H    0.018992
    23  C    0.087323
    24  O   -0.213596
    25  H    0.169037
 Sum of Mulliken charges =  -0.00000

 Dipole moment (field-independent basis, Debye):
    X=             -0.1694    Y=             -2.6727    Z=             -0.0000  Tot=              2.6780
 Quadrupole moment (field-independent basis, Debye-Ang):
   XX=            -82.7081   YY=            -90.2587   ZZ=           -104.0342
   XY=             -7.2602   XZ=             -0.0001   YZ=              0.0001

  Exact polarizability:     273.522     -67.556     254.209      -0.001       0.002      62.870
 Approx polarizability:     261.521     -23.081     241.816      -0.000       0.001      82.138

                      1                      2                      3
                      A                      A                      A
 Frequencies --     26.6201                63.4933               127.8053
 Red. masses --      5.5107                 5.7806                 5.6449
 Frc consts  --      0.0023                 0.0137                 0.0543
 IR Inten    --      0.0573                 1.1790                 1.6417

                      4                      5                      6
                      A                      A                      A
 Frequencies --    151.7888               197.4462               245.3171
 Red. masses --      5.0342                 6.0629                 5.5885
 Frc consts  --      0.0683                 0.1393                 0.1982
 IR Inten    --      0.0719                 0.7689                 0.0235

                      7                      8                      9
                      A                      A                      A
 Frequencies --    277.2026               318.2578               329.8347
 Red. masses --      7.5558                 6.3781                 5.0933
 Frc consts  --      0.3421                 0.3806                 0.3265
 IR Inten    --      0.9674                 7.8501                 0.0722

                     10                     11                     12
                      A                      A                      A
 Frequencies --    417.9707               437.4140               465.9768
 Red. masses --      9.9196                 3.1083                 3.6264
 Frc consts  --      1.0210                 0.3504                 0.4639
 IR Inten    --      0.1335                 1.7783                 8.0707

                     13                     14                     15
                      A                      A                      A
 Frequencies --    517.1441               524.9834               537.0830
 Red. masses --      8.3996                 5.5204                 3.4622
 Frc consts  --      1.3235                 0.8964                 0.5884
 IR Inten    --      0.1362                11.0476                 3.5351

                     16                     17                     18
                      A                      A                      A
 Frequencies --    554.9283               576.4740               591.2270
 Red. masses --      7.5295                 3.7423                 7.6647
 Frc consts  --      1.3661                 0.7327                 1.5785
 IR Inten    --      2.5028                 0.0279                 4.5928

                     19                     20                     21
                      A                      A                      A
 Frequencies --    647.4085               681.2797               730.4763
 Red. masses --      6.1764                 6.6131                 6.5556
 Frc consts  --      1.5253                 1.8084                 2.0610
 IR Inten    --      0.0015                 3.8712                19.9738

                     22                     23                     24
                      A                      A                      A
 Frequencies --    750.5408               756.3057               766.0191
 Red. masses --     10.1762                 1.9328                 3.3601
 Frc consts  --      3.3774                 0.6514                 1.1617
 IR Inten    --     17.2979                30.5430                 0.3598

                     25                     26                     27
                      A                      A                      A
 Frequencies --    774.8288               786.4851               851.5287
 Red. masses --      1.3213                 1.9795                 5.9138
 Frc consts  --      0.4674                 0.7214                 2.5265
 IR Inten    --     61.1260                38.2545                16.9775

                     28                     29                     30
                      A                      A                      A
 Frequencies --    882.4650               887.1326               893.3355
 Red. masses --      1.5668                 1.4083                 6.6131
 Frc consts  --      0.7189                 0.6530                 3.1095
 IR Inten    --      6.7027                 0.0068                 4.0389

                     31                     32                     33
                      A                      A                      A
 Frequencies --    908.7615               967.8455               975.6398
 Red. masses --      1.0842                 1.3638                 1.3664
 Frc consts  --      0.5275                 0.7527                 0.7663
 IR Inten    --     76.8037                 0.8661                 1.8481

                     34                     35                     36
                      A                      A                      A
 Frequencies --   1004.1839              1011.2833              1015.3016
 Red. masses --      7.6612                 1.3039                 1.3054
 Frc consts  --      4.5517                 0.7857                 0.7929
 IR Inten    --     48.6561                 0.4916                 0.0276

                     37                     38                     39
                      A                      A                      A
 Frequencies --   1051.7699              1069.3066              1105.6283
 Red. masses --      1.9954                 1.9020                 3.5258
 Frc consts  --      1.3006                 1.2813                 2.5394
 IR Inten    --      8.6785                 9.4630                 5.7129

                     40                     41                     42
                      A                      A                      A
 Frequencies --   1154.0779              1157.5575              1175.9119
 Red. masses --      1.4347                 1.3707                 1.1307
 Frc consts  --      1.1259                 1.0821                 0.9212
 IR Inten    --      6.8755                 3.1070                39.5157

                     43                     44                     45
                      A                      A                      A
 Frequencies --   1183.5637              1257.3574              1283.7042
 Red. masses --      1.2466                 1.8995                 1.9393
 Frc consts  --      1.0289                 1.7694                 1.8829
 IR Inten    --      0.3719                81.5248                31.3060

                     46                     47                     48
                      A                      A                      A
 Frequencies --   1289.8675              1321.4506              1353.6276
 Red. masses --      2.4097                 2.6344                 3.8507
 Frc consts  --      2.3621                 2.7104                 4.1571
 IR Inten    --    145.0377                24.7345                22.4782

                     49                     50                     51
                      A                      A                      A
 Frequencies --   1373.6659              1379.6275              1478.5973
 Red. masses --      7.1305                 4.9654                 2.4262
 Frc consts  --      7.9275                 5.5683                 3.1252
 IR Inten    --     13.9633                13.8522                 8.1122

                     52                     53                     54
                      A                      A                      A
 Frequencies --   1489.0235              1504.7317              1534.0974
 Red. masses --      2.5550                 2.8947                 3.8242
 Frc consts  --      3.3376                 3.8616                 5.3027
 IR Inten    --     46.4875                17.3721               113.3130

                     55                     56                     57
                      A                      A                      A
 Frequencies --   1572.7778              1592.9175              1648.7943
 Red. masses --      2.9896                 3.1976                 6.8752
 Frc consts  --      4.3572                 4.7804                11.0120
 IR Inten    --    249.0399                61.2335                 5.4814

                     58                     59                     60
                      A                      A                      A
 Frequencies --   1677.9041              1682.5977              1710.2643
 Red. masses --      6.2963                 3.7655                 3.9642
 Frc consts  --     10.4442                 6.2810                 6.8318
 IR Inten    --     30.2116               153.4233               146.6710

                     61                     62                     63
                      A                      A                      A
 Frequencies --   3008.3546              3203.9441              3209.9883
 Red. masses --      1.0721                 1.0877                 1.0860
 Frc consts  --      5.7164                 6.5785                 6.5933
 IR Inten    --   1102.3711                 4.7693                 1.3795

                     64                     65                     66
                      A                      A                      A
 Frequencies --   3211.6365              3220.4624              3229.3669
 Red. masses --      1.0892                 1.0904                 1.0941
 Frc consts  --      6.6194                 6.6632                 6.7226
 IR Inten    --      6.5916                 3.2846                12.3733

                     67                     68                     69
                      A                      A                      A
 Frequencies --   3230.4002              3236.8081              3238.0884
 Red. masses --      1.0959                 1.0998                 1.0993
 Frc consts  --      6.7383                 6.7888                 6.7913
 IR Inten    --      9.3905                17.2511                13.2029

 - Thermochemistry -
 -------------------
 Temperature   298.150 Kelvin.  Pressure   1.00000 Atm.
 Atom     1 has atomic number  6 and mass  12.00000

 Molecular mass:   227.04049 amu.
 Principal axes and moments of inertia in atomic units:
                           1         2         3
     Eigenvalues --  1284.630836316.838267601.46909
           X           -0.70131   0.71285   0.00000
           Y            0.71285   0.70131  -0.00001
           Z            0.00001   0.00001   1.00000
 This molecule is an asymmetric top.
 Rotational symmetry number  1.
 Warning -- assumption of classical behavior for rotation
           may cause significant error
 Rotational temperatures (Kelvin)      0.06742     0.01371     0.01139
 Rotational constants (GHZ):           1.40487     0.28570     0.23742
 Zero-point vibrational energy     499379.1 (Joules/Mol)
                                  119.35446 (Kcal/Mol)
 Warning -- explicit consideration of  18 degrees of freedom as
           vibrations may cause significant error
 Vibrational temperatures:     38.30    91.35   183.88   218.39   284.08
          (Kelvin)            352.96   398.83   457.90   474.56   601.37
                              629.34   670.44   744.06   755.33   772.74
                              798.42   829.42   850.64   931.48   980.21
                             1050.99  1079.86  1088.16  1102.13  1114.81
                             1131.58  1225.16  1269.67  1276.39  1285.31
                             1307.51  1392.51  1403.73  1444.80  1455.01
                             1460.79  1513.26  1538.49  1590.75  1660.46
                             1665.47  1691.87  1702.88  1809.06  1846.96
                             1855.83  1901.27  1947.57  1976.40  1984.98
                             2127.37  2142.37  2164.97  2207.22  2262.88
                             2291.85  2372.25  2414.13  2420.88  2460.69
                             4328.35  4609.76  4618.46  4620.83  4633.53
                             4646.34  4647.83  4657.04  4658.89

 Zero-point correction=                           0.190203 (Hartree/Particle)
 Thermal correction to Energy=                    0.201841
 Thermal correction to Enthalpy=                  0.202785
 Thermal correction to Gibbs Free Energy=         0.151213
 Sum of electronic and zero-point Energies=          -1028.638660
 Sum of electronic and thermal Energies=             -1028.627022
 Sum of electronic and thermal Enthalpies=           -1028.626078
 Sum of electronic and thermal Free Energies=        -1028.677650

                     E (Thermal)             CV                S
                      KCal/Mol        Cal/Mol-Kelvin    Cal/Mol-Kelvin
 Total                  126.657             47.297            108.543
 Electronic               0.000              0.000              0.000
 Translational            0.889              2.981             42.162
 Rotational               0.889              2.981             32.489
 Vibrational            124.880             41.335             33.892
 Vibration     1          0.593              1.984              6.067
 Vibration     2          0.597              1.972              4.346
 Vibration     3          0.611              1.925              2.979
 Vibration     4          0.619              1.901              2.650
 Vibration     5          0.637              1.843              2.157
 Vibration     6          0.660              1.771              1.764
 Vibration     7          0.678              1.716              1.551
 Vibration     8          0.705              1.639              1.319
 Vibration     9          0.713              1.616              1.261
 Vibration    10          0.781              1.431              0.899
 Vibration    11          0.798              1.389              0.835
 Vibration    12          0.823              1.326              0.749
 Vibration    13          0.872              1.212              0.617
 Vibration    14          0.880              1.195              0.599
 Vibration    15          0.892              1.168              0.572
 Vibration    16          0.910              1.129              0.534
 Vibration    17          0.933              1.082              0.492
 Vibration    18          0.949              1.050              0.465

 Optimization completed.
    -- Stationary point found.
 Normal termination of Gaussian 16 at Wed Oct 28 01:15:09 2020.
