 Gaussian 16, Revision C.01,
 Gaussian 16:  ES64L-G16RevC.01  3-Jul-2019

 ----------------------------------------------------------------------
 #p opt=addgic freq wb97xd/cc-pvdz nosymm int=ultrafine scrf=(solvent=C
 arbonTetraChloride)
 ----------------------------------------------------------------------

 ------------------------------------------------
 NM 2D-scan of HBT TD-WB97XD pVDZ in CTC Relaxed.
 ------------------------------------------------
 Symbolic Z-matrix:
 Charge =  0 Multiplicity = 1

 SCF Done:  E(RwB97XD) =  -1028.53395892     A.U. after   16 cycles
 SCF Done:  E(RwB97XD) =  -1028.72368314     A.U. after   14 cycles
 SCF Done:  E(RwB97XD) =  -1028.77717239     A.U. after   15 cycles
 SCF Done:  E(RwB97XD) =  -1028.79140914     A.U. after   13 cycles
 SCF Done:  E(RwB97XD) =  -1028.79270426     A.U. after   12 cycles
 SCF Done:  E(RwB97XD) =  -1028.79301615     A.U. after   12 cycles
 SCF Done:  E(RwB97XD) =  -1028.79304682     A.U. after   10 cycles
 SCF Done:  E(RwB97XD) =  -1028.79304940     A.U. after    9 cycles
 Optimization completed.
    -- Stationary point found.
 Normal termination of Gaussian 16 at Tue Oct 27 23:23:28 2020.

 --------------------------------------------------------------------
 #P Geom=AllCheck Guess=TCheck SCRF=Check GenChk RwB97XD/CC-pVDZ Freq
 --------------------------------------------------------------------

 Structure from the checkpoint file:  "config_12_10.chk"
 ------------------------------------------------
 NM 2D-scan of HBT TD-WB97XD pVDZ in CTC Relaxed.
 ------------------------------------------------
 Charge =  0 Multiplicity = 1

                          Input orientation:
 ---------------------------------------------------------------------
 Center     Atomic      Atomic             Coordinates (Angstroms)
 Number     Number       Type             X           Y           Z
 ---------------------------------------------------------------------
      1          6           0        1.651659   -3.282799    0.000073
      2          6           0        1.010983   -2.049722    0.000038
      3          6           0        1.746832   -0.884344   -0.000045
      4          6           0        3.140386   -0.876325   -0.000078
      5          6           0        3.780757   -2.113112   -0.000036
      6          6           0        3.044902   -3.301551    0.000035
      7          1           0        1.081477   -4.211301    0.000124
      8          1           0        3.702437    0.058795   -0.000137
      9          1           0        4.870766   -2.149494   -0.000061
     10          1           0        3.566348   -4.259012    0.000059
     11          7           0        0.902821    0.210309   -0.000104
     12         16           0       -0.724022   -1.665574    0.000065
     13          6           0       -1.387175    1.101250   -0.000047
     14          6           0       -2.780396    0.848454   -0.000097
     15          6           0       -0.853923    2.466239    0.000063
     16          6           0       -3.700322    1.873334   -0.000031
     17          1           0       -3.132826   -0.187595   -0.000197
     18          6           0       -1.893821    3.505209    0.000162
     19          6           0       -3.234780    3.215176    0.000112
     20          1           0       -4.768759    1.656037   -0.000079
     21          1           0       -1.547965    4.540989    0.000273
     22          1           0       -3.965024    4.028896    0.000183
     23          6           0       -0.435583    0.049801   -0.000053
     24          8           0        0.364169    2.676149    0.000089
     25          1           0        1.450980    1.027886   -0.000229
 ---------------------------------------------------------------------

 SCF Done:  E(RwB97XD) =  -1028.79304940     A.U. after    1 cycles

 Alpha  occ. eigenvalues --  -89.09965 -19.21040 -14.51960 -10.41823 -10.36824
 Alpha  occ. eigenvalues --  -10.35956 -10.35799 -10.33353 -10.33147 -10.32702
 Alpha  occ. eigenvalues --  -10.32331 -10.31075 -10.30608 -10.30420 -10.29036
 Alpha  occ. eigenvalues --  -10.28535  -8.11998  -6.06891  -6.06490  -6.05999
 Alpha  occ. eigenvalues --   -1.13270  -1.10238  -0.98670  -0.95375  -0.93287
 Alpha  occ. eigenvalues --   -0.89213  -0.86587  -0.84025  -0.81526  -0.75619
 Alpha  occ. eigenvalues --   -0.74358  -0.71674  -0.69533  -0.67761  -0.64312
 Alpha  occ. eigenvalues --   -0.60903  -0.59802  -0.56610  -0.56033  -0.55989
 Alpha  occ. eigenvalues --   -0.55025  -0.53574  -0.52907  -0.50272  -0.49328
 Alpha  occ. eigenvalues --   -0.49011  -0.48225  -0.46693  -0.45651  -0.44692
 Alpha  occ. eigenvalues --   -0.44532  -0.42879  -0.41762  -0.40373  -0.36939
 Alpha  occ. eigenvalues --   -0.33626  -0.31700  -0.31115  -0.26034
 Alpha virt. eigenvalues --   -0.01338   0.03708   0.06000   0.06887   0.09663
 Alpha virt. eigenvalues --    0.11280   0.13137   0.14570   0.15906   0.16722
 Alpha virt. eigenvalues --    0.18200   0.19777   0.21068   0.21633   0.22997

 Mulliken charges:
               1
     1  C    0.011269
     2  C   -0.243971
     3  C    0.212384
     4  C   -0.014181
     5  C    0.011745
     6  C    0.003678
     7  H    0.024465
     8  H    0.032297
     9  H    0.027918
    10  H    0.026160
    11  N   -0.085051
    12  S    0.177651
    13  C   -0.109350
    14  C   -0.010346
    15  C    0.105389
    16  C   -0.035868
    17  H    0.004732
    18  C   -0.045390
    19  C    0.028883
    20  H    0.002168
    21  H    0.000712
    22  H    0.013604
    23  C    0.105725
    24  O   -0.359617
    25  H    0.114994
 Sum of Mulliken charges =  -0.00000

 Dipole moment (field-independent basis, Debye):
    X=              2.2675    Y=             -5.2808    Z=             -0.0004  Tot=              5.7470
 Quadrupole moment (field-independent basis, Debye-Ang):
   XX=            -81.2688   YY=            -95.3549   ZZ=           -104.0078
   XY=             -6.5653   XZ=             -0.0008   YZ=             -0.0006

  Exact polarizability:     291.877     -92.128     289.680      -0.002       0.003      62.943
 Approx polarizability:     268.850     -36.369     255.171      -0.002       0.001      81.943

 ******    1 imaginary frequencies (negative Signs) ******

                      1                      2                      3
                      A                      A                      A
 Frequencies --    -79.7489                54.2742                71.7322
 Red. masses --      2.8435                 5.6168                 5.9700
 Frc consts  --      0.0107                 0.0097                 0.0181
 IR Inten    --     11.9047                 0.0089                 2.5842

                      4                      5                      6
                      A                      A                      A
 Frequencies --    113.3813               185.9250               212.3799
 Red. masses --      5.6689                 4.6470                 4.4970
 Frc consts  --      0.0429                 0.0946                 0.1195
 IR Inten    --      0.7177                 3.2610                14.5743

                      7                      8                      9
                      A                      A                      A
 Frequencies --    267.1811               274.3735               308.5543
 Red. masses --      7.5441                 2.3162                 7.7266
 Frc consts  --      0.3173                 0.1027                 0.4334
 IR Inten    --      3.4547                27.2688                 4.8009

                     10                     11                     12
                      A                      A                      A
 Frequencies --    341.4876               384.8613               432.6366
 Red. masses --      2.4752                 7.8010                 2.9199
 Frc consts  --      0.1701                 0.6808                 0.3220
 IR Inten    --     24.9999                 4.5704                 4.6896

                     13                     14                     15
                      A                      A                      A
 Frequencies --    441.5938               502.1593               522.2110
 Red. masses --      3.4837                 7.9208                 2.6805
 Frc consts  --      0.4003                 1.1768                 0.4307
 IR Inten    --      6.3211                 9.3075                 3.0449

                     16                     17                     18
                      A                      A                      A
 Frequencies --    535.7363               545.6690               562.6325
 Red. masses --      7.8333                 6.9999                 3.7807
 Frc consts  --      1.3246                 1.2280                 0.7051
 IR Inten    --      7.4299                 7.1280                 0.0126

                     19                     20                     21
                      A                      A                      A
 Frequencies --    581.2559               629.7937               661.6015
 Red. masses --      7.4471                 6.9384                 6.3586
 Frc consts  --      1.4824                 1.6215                 1.6399
 IR Inten    --     40.6487                 0.9961                 0.8358

                     22                     23                     24
                      A                      A                      A
 Frequencies --    700.4133               738.9867               750.5524
 Red. masses --      5.7072                 7.3107                 2.6942
 Frc consts  --      1.6496                 2.3522                 0.8942
 IR Inten    --     51.7920                37.9491                 9.7679

                     25                     26                     27
                      A                      A                      A
 Frequencies --    758.8267               775.4205               779.2350
 Red. masses --      1.4278                 1.5463                 2.4114
 Frc consts  --      0.4844                 0.5478                 0.8627
 IR Inten    --     47.4534                52.6510                21.2757

                     28                     29                     30
                      A                      A                      A
 Frequencies --    826.9657               875.1450               879.9627
 Red. masses --      6.2127                 2.0470                 1.3749
 Frc consts  --      2.5032                 0.9237                 0.6273
 IR Inten    --     27.0169                14.7979                 0.9817

                     31                     32                     33
                      A                      A                      A
 Frequencies --    901.7447               967.2143               970.3871
 Red. masses --      6.0504                 1.3231                 1.3580
 Frc consts  --      2.8987                 0.7293                 0.7534
 IR Inten    --      3.1803                 0.1301                 1.4536

                     34                     35                     36
                      A                      A                      A
 Frequencies --    976.9152              1014.2731              1016.3340
 Red. masses --      4.6315                 1.3019                 1.3057
 Frc consts  --      2.6043                 0.7891                 0.7946
 IR Inten    --     23.5278                 0.0049                 0.3307

                     37                     38                     39
                      A                      A                      A
 Frequencies --   1045.0269              1060.2016              1095.1350
 Red. masses --      2.0946                 2.1382                 3.8300
 Frc consts  --      1.3478                 1.4160                 2.7064
 IR Inten    --      7.5828                12.5226                 1.7824

                     40                     41                     42
                      A                      A                      A
 Frequencies --   1113.6653              1157.6068              1158.8562
 Red. masses --      1.8000                 1.2625                 1.2900
 Frc consts  --      1.3153                 0.9968                 1.0207
 IR Inten    --     76.2381                31.0664                35.7492

                     43                     44                     45
                      A                      A                      A
 Frequencies --   1182.6877              1191.1017              1225.5346
 Red. masses --      1.1592                 1.1694                 2.3202
 Frc consts  --      0.9553                 0.9775                 2.0532
 IR Inten    --     36.7184                 8.6976                51.6315

                     46                     47                     48
                      A                      A                      A
 Frequencies --   1280.6611              1306.2640              1360.4895
 Red. masses --      2.1726                 1.7010                 2.5372
 Frc consts  --      2.0994                 1.7101                 2.7669
 IR Inten    --     98.9727               132.1648                51.4479

                     49                     50                     51
                      A                      A                      A
 Frequencies --   1382.3287              1397.3865              1412.2142
 Red. masses --      5.6001                 6.0455                 2.2104
 Frc consts  --      6.3047                 6.9553                 2.5973
 IR Inten    --     50.7078               104.0577                 7.0866

                     52                     53                     54
                      A                      A                      A
 Frequencies --   1486.8511              1504.2124              1532.6604
 Red. masses --      3.1745                 3.1266                 3.6766
 Frc consts  --      4.1349                 4.1681                 5.0885
 IR Inten    --    555.3103               893.5928              1088.0630

                     55                     56                     57
                      A                      A                      A
 Frequencies --   1541.1736              1588.7532              1653.2944
 Red. masses --      3.2507                 6.6322                 5.9526
 Frc consts  --      4.5491                 9.8632                 9.5865
 IR Inten    --     37.3644                44.6838                61.9707

                     58                     59                     60
                      A                      A                      A
 Frequencies --   1679.3396              1711.9077              1745.8057
 Red. masses --      7.1027                 7.9056                 9.6957
 Frc consts  --     11.8018                13.6505                17.4110
 IR Inten    --     35.6882                27.4508               451.5309

                     61                     62                     63
                      A                      A                      A
 Frequencies --   3178.6351              3191.4633              3216.7849
 Red. masses --      1.0893                 1.0877                 1.0942
 Frc consts  --      6.4843                 6.5274                 6.6710
 IR Inten    --      5.2963                14.3183                32.1528

                     64                     65                     66
                      A                      A                      A
 Frequencies --   3217.8388              3228.0099              3230.6597
 Red. masses --      1.0868                 1.0912                 1.0969
 Frc consts  --      6.6300                 6.6993                 6.7451
 IR Inten    --      2.1561                 1.3360                20.1736

                     67                     68                     69
                      A                      A                      A
 Frequencies --   3236.1357              3245.6471              3981.4333
 Red. masses --      1.0962                 1.0991                 1.0778
 Frc consts  --      6.7635                 6.8218                10.0659
 IR Inten    --      4.0517                12.4310               125.0563

 - Thermochemistry -
 -------------------
 Temperature   298.150 Kelvin.  Pressure   1.00000 Atm.
 Atom     1 has atomic number  6 and mass  12.00000

 Molecular mass:   227.04049 amu.
 Principal axes and moments of inertia in atomic units:
                           1         2         3
     Eigenvalues --  1277.292946421.740887699.03381
           X           -0.70699   0.70723   0.00000
           Y            0.70723   0.70699  -0.00001
           Z            0.00001   0.00000   1.00000
 This molecule is an asymmetric top.
 Rotational symmetry number  1.
 Warning -- assumption of classical behavior for rotation
           may cause significant error
 Rotational temperatures (Kelvin)      0.06781     0.01349     0.01125
 Rotational constants (GHZ):           1.41294     0.28104     0.23441
    1 imaginary frequencies ignored.
 Zero-point vibrational energy     497057.8 (Joules/Mol)
                                  118.79968 (Kcal/Mol)
 Warning -- explicit consideration of  18 degrees of freedom as
           vibrations may cause significant error
 Vibrational temperatures:     78.09   103.21   163.13   267.50   305.57
          (Kelvin)            384.41   394.76   443.94   491.32   553.73
                              622.47   635.35   722.50   751.35   770.81
                              785.10   809.50   836.30   906.13   951.90
                             1007.74  1063.24  1079.88  1091.78  1115.66
                             1121.15  1189.82  1259.14  1266.07  1297.41
                             1391.61  1396.17  1405.56  1459.31  1462.28
                             1503.56  1525.39  1575.65  1602.32  1665.54
                             1667.34  1701.62  1713.73  1763.27  1842.59
                             1879.42  1957.44  1988.86  2010.53  2031.86
                             2139.25  2164.23  2205.16  2217.41  2285.86
                             2378.72  2416.20  2463.05  2511.82  4573.35
                             4591.80  4628.24  4629.75  4644.39  4648.20
                             4656.08  4669.76  5728.39

 Zero-point correction=                           0.189319 (Hartree/Particle)
 Thermal correction to Energy=                    0.200905
 Thermal correction to Enthalpy=                  0.201850
 Thermal correction to Gibbs Free Energy=         0.151073
 Sum of electronic and zero-point Energies=          -1028.603730
 Sum of electronic and thermal Energies=             -1028.592144
 Sum of electronic and thermal Enthalpies=           -1028.591200
 Sum of electronic and thermal Free Energies=        -1028.641977

                     E (Thermal)             CV                S
                      KCal/Mol        Cal/Mol-Kelvin    Cal/Mol-Kelvin
 Total                  126.070             47.386            106.869
 Electronic               0.000              0.000              0.000
 Translational            0.889              2.981             42.162
 Rotational               0.889              2.981             32.513
 Vibrational            124.293             41.424             32.194
 Vibration     1          0.596              1.976              4.655
 Vibration     2          0.598              1.967              4.105
 Vibration     3          0.607              1.938              3.210
 Vibration     4          0.632              1.859              2.268
 Vibration     5          0.643              1.822              2.023
 Vibration     6          0.672              1.733              1.614
 Vibration     7          0.677              1.721              1.568
 Vibration     8          0.698              1.657              1.370
 Vibration     9          0.721              1.593              1.205
 Vibration    10          0.754              1.502              1.020
 Vibration    11          0.794              1.399              0.850
 Vibration    12          0.801              1.379              0.822
 Vibration    13          0.858              1.245              0.653
 Vibration    14          0.877              1.201              0.605
 Vibration    15          0.891              1.171              0.575
 Vibration    16          0.901              1.149              0.553
 Vibration    17          0.918              1.112              0.519
 Vibration    18          0.938              1.072              0.483

 Optimization completed.
    -- Stationary point found.
 Normal termination of Gaussian 16 at Tue Oct 27 23:29:19 2020.
