 Gaussian 16, Revision C.01,
 Gaussian 16:  ES64L-G16RevC.01  3-Jul-2019

 ----------------------------------------------------------------------
 #p opt=addgic freq wb97xd/cc-pvdz nosymm int=ultrafine scrf=(solvent=C
 arbonTetraChloride)
 ----------------------------------------------------------------------

 ------------------------------------------------
 NM 2D-scan of HBT TD-WB97XD pVDZ in CTC Relaxed.
 ------------------------------------------------
 Symbolic Z-matrix:
 Charge =  0 Multiplicity = 1

 SCF Done:  E(RwB97XD) =  -1028.47950178     A.U. after   15 cycles
 SCF Done:  E(RwB97XD) =  -1028.74461171     A.U. after   13 cycles
 SCF Done:  E(RwB97XD) =  -1028.81542930     A.U. after   15 cycles
 SCF Done:  E(RwB97XD) =  -1028.82372119     A.U. after   13 cycles
 SCF Done:  E(RwB97XD) =  -1028.82490727     A.U. after   12 cycles
 SCF Done:  E(RwB97XD) =  -1028.82503230     A.U. after   11 cycles
 SCF Done:  E(RwB97XD) =  -1028.82503674     A.U. after    9 cycles
 Optimization completed.
    -- Stationary point found.
 Normal termination of Gaussian 16 at Tue Oct 27 22:28:17 2020.

 --------------------------------------------------------------------
 #P Geom=AllCheck Guess=TCheck SCRF=Check GenChk RwB97XD/CC-pVDZ Freq
 --------------------------------------------------------------------

 Structure from the checkpoint file:  "config_1_8.chk"
 ------------------------------------------------
 NM 2D-scan of HBT TD-WB97XD pVDZ in CTC Relaxed.
 ------------------------------------------------
 Charge =  0 Multiplicity = 1

                          Input orientation:
 ---------------------------------------------------------------------
 Center     Atomic      Atomic             Coordinates (Angstroms)
 Number     Number       Type             X           Y           Z
 ---------------------------------------------------------------------
      1          6           0        1.679266   -3.329835    0.000005
      2          6           0        0.967192   -2.121454   -0.000016
      3          6           0        1.668608   -0.899779   -0.000041
      4          6           0        3.066299   -0.857976   -0.000049
      5          6           0        3.766118   -2.049147   -0.000031
      6          6           0        3.072261   -3.272494   -0.000003
      7          1           0        1.167052   -4.292587    0.000021
      8          1           0        3.565062    0.111699   -0.000069
      9          1           0        4.856919   -2.044497   -0.000037
     10          1           0        3.637167   -4.206220    0.000009
     11          7           0        0.904852    0.238813   -0.000048
     12         16           0       -0.759439   -1.774836   -0.000036
     13          6           0       -1.345201    1.093144   -0.000006
     14          6           0       -2.740990    0.868768   -0.000015
     15          6           0       -0.908091    2.452396    0.000033
     16          6           0       -3.653619    1.909605    0.000015
     17          1           0       -3.108766   -0.160455   -0.000049
     18          6           0       -1.842371    3.494557    0.000072
     19          6           0       -3.195741    3.235291    0.000063
     20          1           0       -4.722635    1.696515    0.000004
     21          1           0       -1.448545    4.511248    0.000110
     22          1           0       -3.905550    4.064317    0.000094
     23          6           0       -0.368197   -0.009744   -0.000027
     24          8           0        0.363768    2.897092    0.000058
     25          1           0        0.965013    2.139743    0.000055
 ---------------------------------------------------------------------

 SCF Done:  E(RwB97XD) =  -1028.82503674     A.U. after    1 cycles

 Alpha  occ. eigenvalues --  -89.08674 -19.28811 -14.46594 -10.39471 -10.37649
 Alpha  occ. eigenvalues --  -10.34921 -10.34476 -10.32948 -10.32390 -10.31932
 Alpha  occ. eigenvalues --  -10.31552 -10.31342 -10.31330 -10.31285 -10.30319
 Alpha  occ. eigenvalues --  -10.30026  -8.10582  -6.05450  -6.05097  -6.04621
 Alpha  occ. eigenvalues --   -1.16747  -1.08753  -0.97155  -0.96066  -0.91064
 Alpha  occ. eigenvalues --   -0.88466  -0.85279  -0.84528  -0.82821  -0.75435
 Alpha  occ. eigenvalues --   -0.71331  -0.70672  -0.69487  -0.68037  -0.63029
 Alpha  occ. eigenvalues --   -0.60089  -0.58581  -0.58353  -0.56432  -0.54477
 Alpha  occ. eigenvalues --   -0.53659  -0.53059  -0.52527  -0.50806  -0.50407
 Alpha  occ. eigenvalues --   -0.49113  -0.47851  -0.45736  -0.45255  -0.44910
 Alpha  occ. eigenvalues --   -0.43787  -0.42986  -0.42441  -0.39583  -0.37397
 Alpha  occ. eigenvalues --   -0.36113  -0.31984  -0.31732  -0.29141
 Alpha virt. eigenvalues --   -0.00384   0.04917   0.06732   0.07161   0.07475
 Alpha virt. eigenvalues --    0.11650   0.13232   0.15145   0.15962   0.17617
 Alpha virt. eigenvalues --    0.18918   0.20199   0.21680   0.22446   0.22887

 Mulliken charges:
               1
     1  C   -0.000150
     2  C   -0.206599
     3  C    0.217294
     4  C   -0.012871
     5  C    0.007359
     6  C   -0.002310
     7  H    0.020156
     8  H    0.014698
     9  H    0.018489
    10  H    0.021024
    11  N   -0.315877
    12  S    0.131141
    13  C   -0.055800
    14  C   -0.018873
    15  C    0.058132
    16  C   -0.005297
    17  H    0.012647
    18  C    0.020610
    19  C    0.018917
    20  H    0.010590
    21  H    0.017546
    22  H    0.018413
    23  C    0.067011
    24  O   -0.186941
    25  H    0.150691
 Sum of Mulliken charges =  -0.00000

 Dipole moment (field-independent basis, Debye):
    X=              0.0790    Y=             -1.9348    Z=              0.0000  Tot=              1.9364
 Quadrupole moment (field-independent basis, Debye-Ang):
   XX=            -82.6403   YY=            -89.6970   ZZ=           -104.2713
   XY=             -6.7246   XZ=             -0.0000   YZ=              0.0002

  Exact polarizability:     274.924     -65.249     256.353      -0.001       0.002      63.137
 Approx polarizability:     263.224     -22.147     243.571      -0.000       0.001      82.272

                      1                      2                      3
                      A                      A                      A
 Frequencies --     49.1393                56.4968               108.9943
 Red. masses --      6.3559                 5.0839                 5.6585
 Frc consts  --      0.0090                 0.0096                 0.0396
 IR Inten    --      1.0486                 0.0062                 0.9666

                      4                      5                      6
                      A                      A                      A
 Frequencies --    149.8743               199.5977               244.7301
 Red. masses --      4.8759                 5.7494                 5.8247
 Frc consts  --      0.0645                 0.1350                 0.2055
 IR Inten    --      0.0081                 0.3265                 0.1259

                      7                      8                      9
                      A                      A                      A
 Frequencies --    253.2428               286.0100               325.5031
 Red. masses --      8.2641                 6.2193                 4.9932
 Frc consts  --      0.3123                 0.2997                 0.3117
 IR Inten    --      4.5576                 4.0589                 0.5900

                     10                     11                     12
                      A                      A                      A
 Frequencies --    398.7782               440.2971               471.3459
 Red. masses --      8.4290                 3.1707                 3.7560
 Frc consts  --      0.7898                 0.3622                 0.4916
 IR Inten    --      0.2756                 1.8564                 9.7271

                     13                     14                     15
                      A                      A                      A
 Frequencies --    490.7708               513.3059               538.8719
 Red. masses --      4.6375                 8.8589                 3.4456
 Frc consts  --      0.6581                 1.3753                 0.5895
 IR Inten    --      3.4048                 0.3927                 3.8388

                     16                     17                     18
                      A                      A                      A
 Frequencies --    545.1039               573.1778               583.9027
 Red. masses --      8.6620                 3.4873                 1.1817
 Frc consts  --      1.5164                 0.6750                 0.2374
 IR Inten    --      2.8639                 2.3108                78.3144

                     19                     20                     21
                      A                      A                      A
 Frequencies --    594.9828               653.5111               675.0148
 Red. masses --      7.7104                 4.3534                 6.5448
 Frc consts  --      1.6082                 1.0954                 1.7570
 IR Inten    --      6.7471                14.6074                 4.9208

                     22                     23                     24
                      A                      A                      A
 Frequencies --    684.0100               719.4140               755.3127
 Red. masses --      9.1865                 7.1000                 1.9565
 Frc consts  --      2.5324                 2.1650                 0.6576
 IR Inten    --     50.1377                 1.8107                22.8115

                     25                     26                     27
                      A                      A                      A
 Frequencies --    766.0778               778.7631               788.7219
 Red. masses --      3.7839                 1.3083                 1.9121
 Frc consts  --      1.3084                 0.4675                 0.7008
 IR Inten    --      8.0410                55.3531                37.3040

                     28                     29                     30
                      A                      A                      A
 Frequencies --    836.8448               886.1448               888.0344
 Red. masses --      6.1633                 1.5269                 1.4376
 Frc consts  --      2.5430                 0.7064                 0.6680
 IR Inten    --     28.4948                 3.9688                 0.5444

                     31                     32                     33
                      A                      A                      A
 Frequencies --    891.2651               970.6745               974.1013
 Red. masses --      6.3902                 7.6451                 1.3546
 Frc consts  --      2.9907                 4.2440                 0.7573
 IR Inten    --      2.2534                72.2200                 1.3380

                     34                     35                     36
                      A                      A                      A
 Frequencies --    976.4451              1011.8131              1015.1726
 Red. masses --      1.3645                 1.3013                 1.3049
 Frc consts  --      0.7665                 0.7849                 0.7924
 IR Inten    --      1.3131                 0.3067                 0.0085

                     37                     38                     39
                      A                      A                      A
 Frequencies --   1050.5746              1072.0346              1093.2342
 Red. masses --      2.0260                 2.0689                 4.6875
 Frc consts  --      1.3175                 1.4009                 3.3008
 IR Inten    --      7.9393                16.6536                 6.1507

                     40                     41                     42
                      A                      A                      A
 Frequencies --   1143.4382              1149.6232              1177.1776
 Red. masses --      1.5990                 1.2762                 1.1199
 Frc consts  --      1.2317                 0.9937                 0.9144
 IR Inten    --      8.1795                 6.2304                51.1572

                     43                     44                     45
                      A                      A                      A
 Frequencies --   1184.0115              1221.6693              1273.5998
 Red. masses --      1.1931                 1.5261                 2.0940
 Frc consts  --      0.9854                 1.3420                 2.0013
 IR Inten    --      0.2307               188.0289                61.6792

                     46                     47                     48
                      A                      A                      A
 Frequencies --   1281.3693              1296.7218              1350.0574
 Red. masses --      1.5980                 5.2526                 2.7771
 Frc consts  --      1.5459                 5.2038                 2.9822
 IR Inten    --      2.9841                32.1073                10.2962

                     49                     50                     51
                      A                      A                      A
 Frequencies --   1365.7793              1371.3431              1396.5725
 Red. masses --      4.8107                 2.5908                 2.4869
 Frc consts  --      5.2872                 2.8706                 2.8578
 IR Inten    --     13.9246                 1.1518                90.2148

                     52                     53                     54
                      A                      A                      A
 Frequencies --   1489.4914              1497.7458              1516.3408
 Red. masses --      2.6371                 2.9998                 3.5068
 Frc consts  --      3.4471                 3.9648                 4.7506
 IR Inten    --     26.6116                10.4609               101.5394

                     55                     56                     57
                      A                      A                      A
 Frequencies --   1529.2495              1606.1264              1640.9638
 Red. masses --      2.7655                 9.0193                 6.4593
 Frc consts  --      3.8104                13.7083                10.2478
 IR Inten    --     55.7332               193.0855                18.5073

                     58                     59                     60
                      A                      A                      A
 Frequencies --   1647.3663              1685.2095              1709.7404
 Red. masses --      6.1721                 6.9425                 6.5750
 Frc consts  --      9.8689                11.6164                11.3242
 IR Inten    --     88.3518                 1.6713                80.7410

                     61                     62                     63
                      A                      A                      A
 Frequencies --   3195.5752              3210.7148              3211.4095
 Red. masses --      1.0893                 1.0861                 1.0882
 Frc consts  --      6.5538                 6.5965                 6.6121
 IR Inten    --      4.0352                 1.0947                 5.3936

                     64                     65                     66
                      A                      A                      A
 Frequencies --   3221.7798              3230.3285              3232.0183
 Red. masses --      1.0903                 1.0941                 1.0959
 Frc consts  --      6.6682                 6.7267                 6.7446
 IR Inten    --      4.7225                 9.5852                12.5263

                     67                     68                     69
                      A                      A                      A
 Frequencies --   3238.0416              3238.4131              3739.1612
 Red. masses --      1.0995                 1.0998                 1.0660
 Frc consts  --      6.7924                 6.7959                 8.7809
 IR Inten    --     23.2347                 8.0529               424.5760

 - Thermochemistry -
 -------------------
 Temperature   298.150 Kelvin.  Pressure   1.00000 Atm.
 Atom     1 has atomic number  6 and mass  12.00000

 Molecular mass:   227.04049 amu.
 Principal axes and moments of inertia in atomic units:
                           1         2         3
     Eigenvalues --  1349.735366408.839077758.57444
           X           -0.69159   0.72229  -0.00000
           Y            0.72229   0.69159  -0.00001
           Z            0.00001   0.00001   1.00000
 This molecule is an asymmetric top.
 Rotational symmetry number  1.
 Warning -- assumption of classical behavior for rotation
           may cause significant error
 Rotational temperatures (Kelvin)      0.06417     0.01351     0.01116
 Rotational constants (GHZ):           1.33711     0.28160     0.23261
 Zero-point vibrational energy     498617.5 (Joules/Mol)
                                  119.17243 (Kcal/Mol)
 Warning -- explicit consideration of  19 degrees of freedom as
           vibrations may cause significant error
 Vibrational temperatures:     70.70    81.29   156.82   215.64   287.18
          (Kelvin)            352.11   364.36   411.50   468.33   573.75
                              633.49   678.16   706.11   738.53   775.32
                              784.28   824.67   840.11   856.05   940.26
                              971.20   984.14  1035.08  1086.73  1102.22
                             1120.47  1134.79  1204.03  1274.96  1277.68
                             1282.33  1396.58  1401.51  1404.89  1455.77
                             1460.61  1511.54  1542.42  1572.92  1645.15
                             1654.05  1693.70  1703.53  1757.71  1832.43
                             1843.60  1865.69  1942.43  1965.05  1973.06
                             2009.36  2143.05  2154.92  2181.68  2200.25
                             2310.86  2360.98  2370.19  2424.64  2459.94
                             4597.72  4619.50  4620.50  4635.42  4647.72
                             4650.15  4658.82  4659.35  5379.82

 Zero-point correction=                           0.189913 (Hartree/Particle)
 Thermal correction to Energy=                    0.201836
 Thermal correction to Enthalpy=                  0.202781
 Thermal correction to Gibbs Free Energy=         0.151021
 Sum of electronic and zero-point Energies=          -1028.635123
 Sum of electronic and thermal Energies=             -1028.623200
 Sum of electronic and thermal Enthalpies=           -1028.622256
 Sum of electronic and thermal Free Energies=        -1028.674016

                     E (Thermal)             CV                S
                      KCal/Mol        Cal/Mol-Kelvin    Cal/Mol-Kelvin
 Total                  126.654             48.424            108.938
 Electronic               0.000              0.000              0.000
 Translational            0.889              2.981             42.162
 Rotational               0.889              2.981             32.573
 Vibrational            124.877             42.463             34.203
 Vibration     1          0.595              1.978              4.852
 Vibration     2          0.596              1.975              4.576
 Vibration     3          0.606              1.942              3.287
 Vibration     4          0.618              1.903              2.674
 Vibration     5          0.638              1.840              2.137
 Vibration     6          0.660              1.771              1.768
 Vibration     7          0.664              1.757              1.708
 Vibration     8          0.684              1.700              1.497
 Vibration     9          0.710              1.624              1.282
 Vibration    10          0.765              1.473              0.967
 Vibration    11          0.800              1.382              0.826
 Vibration    12          0.828              1.314              0.734
 Vibration    13          0.847              1.270              0.682
 Vibration    14          0.868              1.221              0.626
 Vibration    15          0.894              1.164              0.568
 Vibration    16          0.900              1.150              0.554
 Vibration    17          0.929              1.089              0.498
 Vibration    18          0.941              1.066              0.478
 Vibration    19          0.953              1.042              0.458

 Optimization completed.
    -- Stationary point found.
 Normal termination of Gaussian 16 at Tue Oct 27 22:34:13 2020.
