 Gaussian 16, Revision C.01,
 Gaussian 16:  ES64L-G16RevC.01  3-Jul-2019

 ----------------------------------------------------------------------
 #p opt=addgic freq wb97xd/cc-pvdz nosymm int=ultrafine scrf=(solvent=C
 arbonTetraChloride)
 ----------------------------------------------------------------------

 ------------------------------------------------
 NM 2D-scan of HBT TD-WB97XD pVDZ in CTC Relaxed.
 ------------------------------------------------
 Symbolic Z-matrix:
 Charge =  0 Multiplicity = 1

 SCF Done:  E(RwB97XD) =  -1028.80145676     A.U. after   16 cycles
 SCF Done:  E(RwB97XD) =  -1028.81006829     A.U. after   14 cycles
 SCF Done:  E(RwB97XD) =  -1028.81094088     A.U. after   13 cycles
 SCF Done:  E(RwB97XD) =  -1028.81123627     A.U. after   12 cycles
 SCF Done:  E(RwB97XD) =  -1028.81126368     A.U. after   10 cycles
 SCF Done:  E(RwB97XD) =  -1028.81126687     A.U. after   10 cycles
 SCF Done:  E(RwB97XD) =  -1028.81126762     A.U. after   10 cycles
 SCF Done:  E(RwB97XD) =  -1028.81126829     A.U. after    9 cycles
 Optimization completed.
    -- Stationary point found.
 Normal termination of Gaussian 16 at Wed Oct 28 00:54:11 2020.

 --------------------------------------------------------------------
 #P Geom=AllCheck Guess=TCheck SCRF=Check GenChk RwB97XD/CC-pVDZ Freq
 --------------------------------------------------------------------

 Structure from the checkpoint file:  "config_8_15.chk"
 ------------------------------------------------
 NM 2D-scan of HBT TD-WB97XD pVDZ in CTC Relaxed.
 ------------------------------------------------
 Charge =  0 Multiplicity = 1

                          Input orientation:
 ---------------------------------------------------------------------
 Center     Atomic      Atomic             Coordinates (Angstroms)
 Number     Number       Type             X           Y           Z
 ---------------------------------------------------------------------
      1          6           0        1.560359   -3.261759   -0.000005
      2          6           0        0.990613   -1.992057   -0.000011
      3          6           0        1.766488   -0.818949   -0.000026
      4          6           0        3.160243   -0.919848   -0.000043
      5          6           0        3.732591   -2.190283   -0.000037
      6          6           0        2.947231   -3.351183   -0.000017
      7          1           0        0.934651   -4.154705    0.000007
      8          1           0        3.779630   -0.022692   -0.000058
      9          1           0        4.819708   -2.279943   -0.000047
     10          1           0        3.425614   -4.331200   -0.000012
     11          7           0        0.977230    0.332823   -0.000024
     12         16           0       -0.716241   -1.610385   -0.000007
     13          6           0       -1.317381    1.102126    0.000029
     14          6           0       -2.699201    0.766118    0.000018
     15          6           0       -0.868226    2.478356    0.000066
     16          6           0       -3.656389    1.740778    0.000015
     17          1           0       -2.997406   -0.285891    0.000003
     18          6           0       -1.918269    3.464912    0.000052
     19          6           0       -3.241174    3.102418    0.000025
     20          1           0       -4.716096    1.486651    0.000001
     21          1           0       -1.617508    4.513900    0.000072
     22          1           0       -4.004460    3.884626    0.000019
     23          6           0       -0.336158    0.090792    0.000004
     24          8           0        0.366456    2.787434    0.000120
     25          1           0        1.135586    1.410084   -0.000044
 ---------------------------------------------------------------------

 SCF Done:  E(RwB97XD) =  -1028.81126829     A.U. after    1 cycles

 Alpha  occ. eigenvalues --  -89.09710 -19.22135 -14.51549 -10.40903 -10.37339
 Alpha  occ. eigenvalues --  -10.36220 -10.35852 -10.33104 -10.32824 -10.32377
 Alpha  occ. eigenvalues --  -10.32220 -10.31305 -10.30900 -10.30470 -10.29309
 Alpha  occ. eigenvalues --  -10.28844  -8.11799  -6.06666  -6.06297  -6.05814
 Alpha  occ. eigenvalues --   -1.12673  -1.09647  -0.98392  -0.95547  -0.93172
 Alpha  occ. eigenvalues --   -0.89169  -0.86589  -0.83752  -0.82176  -0.75638
 Alpha  occ. eigenvalues --   -0.72242  -0.72088  -0.68716  -0.67924  -0.64564
 Alpha  occ. eigenvalues --   -0.60905  -0.59670  -0.56922  -0.55637  -0.55605
 Alpha  occ. eigenvalues --   -0.54952  -0.53812  -0.52944  -0.50302  -0.49818
 Alpha  occ. eigenvalues --   -0.49127  -0.48133  -0.46708  -0.45500  -0.44859
 Alpha  occ. eigenvalues --   -0.44448  -0.43089  -0.41877  -0.40526  -0.36695
 Alpha  occ. eigenvalues --   -0.33387  -0.32657  -0.31576  -0.26796
 Alpha virt. eigenvalues --   -0.01156   0.03934   0.05868   0.06963   0.08907
 Alpha virt. eigenvalues --    0.11113   0.14282   0.14862   0.16422   0.17575
 Alpha virt. eigenvalues --    0.18848   0.20289   0.20994   0.21581   0.22998

 Mulliken charges:
               1
     1  C    0.018448
     2  C   -0.227170
     3  C    0.261412
     4  C   -0.011831
     5  C    0.007933
     6  C    0.004192
     7  H    0.024100
     8  H    0.029808
     9  H    0.026093
    10  H    0.025562
    11  N   -0.188636
    12  S    0.183304
    13  C   -0.101377
    14  C   -0.018898
    15  C    0.113257
    16  C   -0.026539
    17  H    0.013215
    18  C   -0.016913
    19  C    0.025414
    20  H    0.003053
    21  H    0.004228
    22  H    0.014409
    23  C    0.069335
    24  O   -0.408855
    25  H    0.176456
 Sum of Mulliken charges =  -0.00000

 Dipole moment (field-independent basis, Debye):
    X=              1.3481    Y=             -5.0764    Z=             -0.0003  Tot=              5.2524
 Quadrupole moment (field-independent basis, Debye-Ang):
   XX=            -82.0844   YY=            -94.9256   ZZ=           -104.0092
   XY=             -6.9851   XZ=             -0.0003   YZ=             -0.0007

  Exact polarizability:     283.609     -83.134     279.602      -0.001       0.002      62.833
 Approx polarizability:     264.755     -30.140     254.852      -0.000       0.002      81.969

 ******    1 imaginary frequencies (negative Signs) ******

                      1                      2                      3
                      A                      A                      A
 Frequencies --   -104.7860                53.1156                77.5678
 Red. masses --      4.5973                 5.9123                 4.6516
 Frc consts  --      0.0297                 0.0098                 0.0165
 IR Inten    --     32.3995                 1.2403                 0.5393

                      4                      5                      6
                      A                      A                      A
 Frequencies --    144.7225               200.6074               211.8305
 Red. masses --      5.3208                 6.2470                 5.2809
 Frc consts  --      0.0657                 0.1481                 0.1396
 IR Inten    --      1.5404                 0.0348                18.6935

                      7                      8                      9
                      A                      A                      A
 Frequencies --    236.8874               293.5732               312.1189
 Red. masses --      6.2844                 6.4992                 5.3825
 Frc consts  --      0.2078                 0.3300                 0.3089
 IR Inten    --      0.8443                 0.6475                 0.5032

                     10                     11                     12
                      A                      A                      A
 Frequencies --    416.9935               430.4194               453.0345
 Red. masses --     10.4906                 3.2044                 3.5587
 Frc consts  --      1.0748                 0.3498                 0.4303
 IR Inten    --      2.0249                 0.1265                10.5025

                     13                     14                     15
                      A                      A                      A
 Frequencies --    500.2834               513.3890               529.8298
 Red. masses --      3.8988                 8.7618                 2.8451
 Frc consts  --      0.5749                 1.3606                 0.4706
 IR Inten    --      8.3973                10.7169                 4.7622

                     16                     17                     18
                      A                      A                      A
 Frequencies --    551.1400               563.2702               576.9150
 Red. masses --      8.3100                 3.8133                 6.5131
 Frc consts  --      1.4872                 0.7128                 1.2772
 IR Inten    --     13.1701                 0.0422                26.8777

                     19                     20                     21
                      A                      A                      A
 Frequencies --    624.7159               641.9902               721.1373
 Red. masses --      5.6235                 6.1264                 5.5247
 Frc consts  --      1.2931                 1.4877                 1.6928
 IR Inten    --      6.9804                 0.0629                 1.9951

                     22                     23                     24
                      A                      A                      A
 Frequencies --    731.0150               751.4018               761.9650
 Red. masses --      7.4677                 2.6169                 1.4457
 Frc consts  --      2.3512                 0.8705                 0.4945
 IR Inten    --     84.5189                11.1167                55.1399

                     25                     26                     27
                      A                      A                      A
 Frequencies --    776.1621               778.6012               789.7301
 Red. masses --      1.6598                 2.3564                 3.6609
 Frc consts  --      0.5891                 0.8416                 1.3452
 IR Inten    --     22.3679                36.3758                29.1421

                     28                     29                     30
                      A                      A                      A
 Frequencies --    852.0293               877.4382               884.4929
 Red. masses --      5.9522                 1.8593                 1.3763
 Frc consts  --      2.5459                 0.8434                 0.6344
 IR Inten    --     14.2538                 9.6576                 0.7344

                     31                     32                     33
                      A                      A                      A
 Frequencies --    951.0404               965.8162               971.2653
 Red. masses --      4.9857                 1.3272                 1.3611
 Frc consts  --      2.6569                 0.7294                 0.7565
 IR Inten    --     25.2818                 0.3334                 2.5579

                     34                     35                     36
                      A                      A                      A
 Frequencies --   1014.0260              1017.1157              1020.0348
 Red. masses --      1.2955                 1.2744                 1.1114
 Frc consts  --      0.7848                 0.7768                 0.6813
 IR Inten    --      2.6737                 6.7881                70.3483

                     37                     38                     39
                      A                      A                      A
 Frequencies --   1038.3839              1054.6819              1058.6490
 Red. masses --      2.6971                 2.0430                 2.9968
 Frc consts  --      1.7134                 1.3389                 1.9789
 IR Inten    --     21.3675                10.3515                 5.5664

                     40                     41                     42
                      A                      A                      A
 Frequencies --   1119.7926              1162.7301              1164.1885
 Red. masses --      2.6677                 1.3794                 1.2999
 Frc consts  --      1.9709                 1.0988                 1.0381
 IR Inten    --     13.9945                 1.6003                34.6047

                     43                     44                     45
                      A                      A                      A
 Frequencies --   1179.7336              1194.0204              1255.8011
 Red. masses --      1.1645                 1.2743                 1.9413
 Frc consts  --      0.9549                 1.0704                 1.8038
 IR Inten    --     24.8910                 4.8874                23.1723

                     46                     47                     48
                      A                      A                      A
 Frequencies --   1289.2970              1324.9253              1354.1878
 Red. masses --      1.5621                 2.6826                 3.7568
 Frc consts  --      1.5299                 2.7745                 4.0590
 IR Inten    --     21.5415               157.0609                25.5912

                     49                     50                     51
                      A                      A                      A
 Frequencies --   1370.2712              1400.5310              1420.2484
 Red. masses --      4.6370                 3.8329                 3.5158
 Frc consts  --      5.1298                 4.4296                 4.1783
 IR Inten    --     31.6936                14.7625                62.2069

                     52                     53                     54
                      A                      A                      A
 Frequencies --   1492.8624              1501.9660              1513.8513
 Red. masses --      2.6368                 2.6783                 3.1514
 Frc consts  --      3.4624                 3.5598                 4.2553
 IR Inten    --     13.3345                34.8388                14.0208

                     55                     56                     57
                      A                      A                      A
 Frequencies --   1579.8619              1592.1161              1622.2467
 Red. masses --      4.5289                 4.8539                 8.7217
 Frc consts  --      6.6601                 7.2492                13.5233
 IR Inten    --   1824.4593               128.2041               490.6527

                     58                     59                     60
                      A                      A                      A
 Frequencies --   1656.1407              1679.9542              1711.8216
 Red. masses --      6.9384                 6.9387                 6.4105
 Frc consts  --     11.2125                11.5378                11.0677
 IR Inten    --     19.3444                26.5361               272.6526

                     61                     62                     63
                      A                      A                      A
 Frequencies --   2581.5844              3190.4565              3198.1422
 Red. masses --      1.1044                 1.0882                 1.0884
 Frc consts  --      4.3364                 6.5263                 6.5589
 IR Inten    --    521.2415                 2.6803                15.1289

                     64                     65                     66
                      A                      A                      A
 Frequencies --   3214.5212              3223.5621              3224.1058
 Red. masses --      1.0863                 1.0949                 1.0907
 Frc consts  --      6.6132                 6.7032                 6.6802
 IR Inten    --      1.1242                24.0150                 2.9594

                     67                     68                     69
                      A                      A                      A
 Frequencies --   3233.4370              3235.5033              3240.0777
 Red. masses --      1.0961                 1.0978                 1.0999
 Frc consts  --      6.7517                 6.7712                 6.8032
 IR Inten    --      5.5449                17.6746                10.8383

 - Thermochemistry -
 -------------------
 Temperature   298.150 Kelvin.  Pressure   1.00000 Atm.
 Atom     1 has atomic number  6 and mass  12.00000

 Molecular mass:   227.04049 amu.
 Principal axes and moments of inertia in atomic units:
                           1         2         3
     Eigenvalues --  1290.919666281.632767572.55243
           X           -0.70343   0.71077  -0.00000
           Y            0.71077   0.70343  -0.00001
           Z            0.00001   0.00001   1.00000
 This molecule is an asymmetric top.
 Rotational symmetry number  1.
 Warning -- assumption of classical behavior for rotation
           may cause significant error
 Rotational temperatures (Kelvin)      0.06709     0.01379     0.01144
 Rotational constants (GHZ):           1.39803     0.28730     0.23833
    1 imaginary frequencies ignored.
 Zero-point vibrational energy     492115.7 (Joules/Mol)
                                  117.61849 (Kcal/Mol)
 Warning -- explicit consideration of  17 degrees of freedom as
           vibrations may cause significant error
 Vibrational temperatures:     76.42   111.60   208.22   288.63   304.78
          (Kelvin)            340.83   422.39   449.07   599.96   619.28
                              651.82   719.80   738.65   762.31   792.97
                              810.42   830.05   898.83   923.68  1037.56
                             1051.77  1081.10  1096.30  1116.72  1120.23
                             1136.25  1225.88  1262.44  1272.59  1368.33
                             1389.59  1397.43  1458.96  1463.40  1467.60
                             1494.00  1517.45  1523.16  1611.13  1672.91
                             1675.01  1697.37  1717.93  1806.82  1855.01
                             1906.27  1948.37  1971.51  2015.05  2043.42
                             2147.90  2160.99  2178.09  2273.07  2290.70
                             2334.05  2382.82  2417.08  2462.93  3714.32
                             4590.36  4601.41  4624.98  4637.99  4638.77
                             4652.19  4655.17  4661.75

 Zero-point correction=                           0.187437 (Hartree/Particle)
 Thermal correction to Energy=                    0.198614
 Thermal correction to Enthalpy=                  0.199558
 Thermal correction to Gibbs Free Energy=         0.149640
 Sum of electronic and zero-point Energies=          -1028.623831
 Sum of electronic and thermal Energies=             -1028.612655
 Sum of electronic and thermal Enthalpies=           -1028.611710
 Sum of electronic and thermal Free Energies=        -1028.661628

                     E (Thermal)             CV                S
                      KCal/Mol        Cal/Mol-Kelvin    Cal/Mol-Kelvin
 Total                  124.632             46.238            105.060
 Electronic               0.000              0.000              0.000
 Translational            0.889              2.981             42.162
 Rotational               0.889              2.981             32.485
 Vibrational            122.854             40.276             30.413
 Vibration     1          0.596              1.976              4.698
 Vibration     2          0.599              1.964              3.951
 Vibration     3          0.616              1.908              2.740
 Vibration     4          0.638              1.839              2.128
 Vibration     5          0.643              1.823              2.028
 Vibration     6          0.656              1.784              1.826
 Vibration     7          0.688              1.686              1.453
 Vibration     8          0.700              1.651              1.351
 Vibration     9          0.780              1.433              0.902
 Vibration    10          0.792              1.404              0.857
 Vibration    11          0.812              1.354              0.787
 Vibration    12          0.856              1.249              0.657
 Vibration    13          0.868              1.220              0.625
 Vibration    14          0.885              1.184              0.588
 Vibration    15          0.906              1.137              0.542
 Vibration    16          0.919              1.111              0.517
 Vibration    17          0.933              1.081              0.491

 Optimization completed.
    -- Stationary point found.
 Normal termination of Gaussian 16 at Wed Oct 28 01:00:18 2020.
