 Gaussian 16, Revision C.01,
 Gaussian 16:  ES64L-G16RevC.01  3-Jul-2019

 ----------------------------------------------------------------------
 #p opt=addgic freq wb97xd/cc-pvdz nosymm int=ultrafine scrf=(solvent=C
 arbonTetraChloride)
 ----------------------------------------------------------------------

 ------------------------------------------------
 NM 2D-scan of HBT TD-WB97XD pVDZ in CTC Relaxed.
 ------------------------------------------------
 Symbolic Z-matrix:
 Charge =  0 Multiplicity = 1

 SCF Done:  E(RwB97XD) =  -1028.74576666     A.U. after   15 cycles
 SCF Done:  E(RwB97XD) =  -1028.82004826     A.U. after   13 cycles
 SCF Done:  E(RwB97XD) =  -1028.82414345     A.U. after   13 cycles
 SCF Done:  E(RwB97XD) =  -1028.83051771     A.U. after   13 cycles
 SCF Done:  E(RwB97XD) =  -1028.83060622     A.U. after   11 cycles
 SCF Done:  E(RwB97XD) =  -1028.83062423     A.U. after   10 cycles
 SCF Done:  E(RwB97XD) =  -1028.83062649     A.U. after    9 cycles
 SCF Done:  E(RwB97XD) =  -1028.83062666     A.U. after    7 cycles
 SCF Done:  E(RwB97XD) =  -1028.83062670     A.U. after    6 cycles
 Optimization completed.
    -- Stationary point found.
 Normal termination of Gaussian 16 at Tue Oct 27 23:37:09 2020.

 --------------------------------------------------------------------
 #P Geom=AllCheck Guess=TCheck SCRF=Check GenChk RwB97XD/CC-pVDZ Freq
 --------------------------------------------------------------------

 Structure from the checkpoint file:  "config_2_12.chk"
 ------------------------------------------------
 NM 2D-scan of HBT TD-WB97XD pVDZ in CTC Relaxed.
 ------------------------------------------------
 Charge =  0 Multiplicity = 1

                          Input orientation:
 ---------------------------------------------------------------------
 Center     Atomic      Atomic             Coordinates (Angstroms)
 Number     Number       Type             X           Y           Z
 ---------------------------------------------------------------------
      1          6           0        1.616376   -3.306067   -0.000047
      2          6           0        0.976943   -2.063038   -0.000034
      3          6           0        1.715919   -0.865005    0.000008
      4          6           0        3.115350   -0.899640    0.000040
      5          6           0        3.750743   -2.131476    0.000026
      6          6           0        3.007010   -3.323653   -0.000018
      7          1           0        1.045736   -4.235210   -0.000078
      8          1           0        3.675345    0.036054    0.000073
      9          1           0        4.840693   -2.177770    0.000049
     10          1           0        3.527787   -4.282420   -0.000027
     11          7           0        0.958285    0.289489    0.000011
     12         16           0       -0.732976   -1.685409   -0.000053
     13          6           0       -1.326436    1.104393   -0.000021
     14          6           0       -2.705147    0.819693   -0.000006
     15          6           0       -0.914456    2.463727    0.000000
     16          6           0       -3.653657    1.827879    0.000059
     17          1           0       -3.033884   -0.222421   -0.000028
     18          6           0       -1.884509    3.476898    0.000073
     19          6           0       -3.232459    3.164572    0.000106
     20          1           0       -4.715479    1.581749    0.000080
     21          1           0       -1.536764    4.510484    0.000085
     22          1           0       -3.969883    3.969397    0.000156
     23          6           0       -0.320632    0.040794   -0.000036
     24          8           0        0.364814    2.856528   -0.000096
     25          1           0        0.926858    2.048744   -0.000209
 ---------------------------------------------------------------------

 SCF Done:  E(RwB97XD) =  -1028.83062670     A.U. after    1 cycles

 Alpha  occ. eigenvalues --  -89.08594 -19.28428 -14.46871 -10.39393 -10.37491
 Alpha  occ. eigenvalues --  -10.34802 -10.34756 -10.32478 -10.32304 -10.31908
 Alpha  occ. eigenvalues --  -10.31552 -10.31525 -10.31426 -10.31390 -10.30304
 Alpha  occ. eigenvalues --  -10.30151  -8.10604  -6.05460  -6.05105  -6.04652
 Alpha  occ. eigenvalues --   -1.16646  -1.08820  -0.97244  -0.96178  -0.91464
 Alpha  occ. eigenvalues --   -0.88547  -0.85361  -0.84609  -0.82875  -0.75462
 Alpha  occ. eigenvalues --   -0.71432  -0.70622  -0.69434  -0.68155  -0.63140
 Alpha  occ. eigenvalues --   -0.60369  -0.58708  -0.58449  -0.56470  -0.54516
 Alpha  occ. eigenvalues --   -0.53903  -0.53144  -0.52765  -0.50810  -0.50417
 Alpha  occ. eigenvalues --   -0.49226  -0.47766  -0.45851  -0.45378  -0.44981
 Alpha  occ. eigenvalues --   -0.43915  -0.43004  -0.42507  -0.39694  -0.37385
 Alpha  occ. eigenvalues --   -0.36179  -0.32031  -0.31749  -0.29157
 Alpha virt. eigenvalues --   -0.00430   0.04890   0.06792   0.07135   0.07762
 Alpha virt. eigenvalues --    0.11519   0.14034   0.15188   0.16434   0.17957
 Alpha virt. eigenvalues --    0.18894   0.20683   0.21642   0.22524   0.22829

 Mulliken charges:
               1
     1  C    0.007562
     2  C   -0.210214
     3  C    0.217708
     4  C   -0.014703
     5  C    0.005803
     6  C   -0.000261
     7  H    0.018898
     8  H    0.016925
     9  H    0.019220
    10  H    0.021151
    11  N   -0.340560
    12  S    0.140465
    13  C   -0.051116
    14  C   -0.025221
    15  C    0.061068
    16  C   -0.005204
    17  H    0.015960
    18  C    0.013097
    19  C    0.020284
    20  H    0.010156
    21  H    0.017214
    22  H    0.018789
    23  C    0.080652
    24  O   -0.196183
    25  H    0.158509
 Sum of Mulliken charges =  -0.00000

 Dipole moment (field-independent basis, Debye):
    X=             -0.0825    Y=             -2.2875    Z=             -0.0001  Tot=              2.2890
 Quadrupole moment (field-independent basis, Debye-Ang):
   XX=            -82.7127   YY=            -89.9074   ZZ=           -104.1473
   XY=             -7.0501   XZ=             -0.0003   YZ=              0.0003

  Exact polarizability:     274.145     -66.449     255.191      -0.001       0.003      62.986
 Approx polarizability:     262.262     -22.695     242.543      -0.000       0.003      82.184

                      1                      2                      3
                      A                      A                      A
 Frequencies --     49.6740                59.8914               116.1599
 Red. masses --      6.0145                 5.2425                 5.6590
 Frc consts  --      0.0087                 0.0111                 0.0450
 IR Inten    --      0.3725                 0.7990                 1.2760

                      4                      5                      6
                      A                      A                      A
 Frequencies --    151.5821               198.9931               246.1466
 Red. masses --      4.9836                 5.9410                 5.7116
 Frc consts  --      0.0675                 0.1386                 0.2039
 IR Inten    --      0.0034                 0.6464                 0.0226

                      7                      8                      9
                      A                      A                      A
 Frequencies --    266.5961               297.9867               328.1380
 Red. masses --      8.0250                 6.2928                 5.0811
 Frc consts  --      0.3360                 0.3292                 0.3223
 IR Inten    --      2.0986                 6.5136                 0.1941

                     10                     11                     12
                      A                      A                      A
 Frequencies --    407.8990               438.8509               468.8726
 Red. masses --      9.0465                 3.1434                 3.7153
 Frc consts  --      0.8868                 0.3567                 0.4812
 IR Inten    --      0.2237                 1.9877                 8.0949

                     13                     14                     15
                      A                      A                      A
 Frequencies --    508.9007               516.1143               538.0890
 Red. masses --      4.9226                 8.5612                 3.4512
 Frc consts  --      0.7511                 1.3436                 0.5888
 IR Inten    --      6.6849                 0.0420                 3.8207

                     16                     17                     18
                      A                      A                      A
 Frequencies --    547.6171               575.0766               592.2835
 Red. masses --      8.3917                 3.7354                 7.7074
 Frc consts  --      1.4827                 0.7278                 1.5930
 IR Inten    --      2.1963                 0.0178                 6.0467

                     19                     20                     21
                      A                      A                      A
 Frequencies --    645.0738               677.8396               713.5446
 Red. masses --      5.4320                 6.5975                 7.9368
 Frc consts  --      1.3318                 1.7860                 2.3809
 IR Inten    --      0.8034                 4.1043                38.7762

                     22                     23                     24
                      A                      A                      A
 Frequencies --    730.2147               745.8220               756.5355
 Red. masses --      8.2653                 1.5197                 1.9015
 Frc consts  --      2.5966                 0.4981                 0.6412
 IR Inten    --      3.2669                59.8284                16.8580

                     25                     26                     27
                      A                      A                      A
 Frequencies --    774.7868               783.8368               791.8430
 Red. masses --      1.5826                 1.6823                 1.7672
 Frc consts  --      0.5597                 0.6090                 0.6528
 IR Inten    --     69.0984                10.2000                57.0825

                     28                     29                     30
                      A                      A                      A
 Frequencies --    844.8451               884.6911               888.2453
 Red. masses --      6.0140                 1.5407                 1.4244
 Frc consts  --      2.5291                 0.7105                 0.6621
 IR Inten    --     21.5410                 3.8789                 0.9479

                     31                     32                     33
                      A                      A                      A
 Frequencies --    892.0009               971.2602               976.5038
 Red. masses --      6.4839                 1.3590                 1.3651
 Frc consts  --      3.0396                 0.7553                 0.7669
 IR Inten    --      3.2743                 1.1113                 1.5974

                     34                     35                     36
                      A                      A                      A
 Frequencies --    987.5318              1011.5999              1015.6196
 Red. masses --      7.6464                 1.3024                 1.3046
 Frc consts  --      4.3935                 0.7853                 0.7929
 IR Inten    --     60.9043                 0.3597                 0.0178

                     37                     38                     39
                      A                      A                      A
 Frequencies --   1051.9102              1071.2302              1099.5510
 Red. masses --      2.0007                 1.9793                 4.2170
 Frc consts  --      1.3044                 1.3382                 3.0039
 IR Inten    --      8.3979                11.8705                 6.2192

                     40                     41                     42
                      A                      A                      A
 Frequencies --   1150.0574              1153.1011              1177.0645
 Red. masses --      1.4957                 1.3129                 1.1318
 Frc consts  --      1.1656                 1.0285                 0.9239
 IR Inten    --      4.7312                 3.9514                42.4286

                     43                     44                     45
                      A                      A                      A
 Frequencies --   1185.0974              1246.5951              1282.8224
 Red. masses --      1.2083                 1.8655                 1.9191
 Frc consts  --      0.9999                 1.7080                 1.8607
 IR Inten    --      0.1878               149.4834                42.9107

                     46                     47                     48
                      A                      A                      A
 Frequencies --   1286.4000              1328.9653              1341.8350
 Red. masses --      1.8125                 4.8336                 3.0204
 Frc consts  --      1.7672                 5.0298                 3.2042
 IR Inten    --     62.7619                32.6181                 3.4488

                     49                     50                     51
                      A                      A                      A
 Frequencies --   1370.3034              1378.1242              1449.7232
 Red. masses --      7.7296                 3.7115                 1.6904
 Frc consts  --      8.5515                 4.1532                 2.0933
 IR Inten    --     15.8865                14.1027                60.4634

                     52                     53                     54
                      A                      A                      A
 Frequencies --   1489.0688              1503.4174              1523.3362
 Red. masses --      2.6395                 2.8930                 3.5306
 Frc consts  --      3.4483                 3.8527                 4.8272
 IR Inten    --     39.5915                 4.7902                89.5154

                     55                     56                     57
                      A                      A                      A
 Frequencies --   1540.8569              1595.4515              1645.6463
 Red. masses --      2.4302                 7.8097                 6.7266
 Frc consts  --      3.3994                11.7126                10.7329
 IR Inten    --    125.0219               194.4022                 6.2530

                     58                     59                     60
                      A                      A                      A
 Frequencies --   1659.8454              1681.2544              1709.1160
 Red. masses --      4.8482                 6.8913                 6.0767
 Frc consts  --      7.8699                11.4768                10.4584
 IR Inten    --    121.2478                 6.4925               111.8332

                     61                     62                     63
                      A                      A                      A
 Frequencies --   3199.3419              3211.9614              3212.3690
 Red. masses --      1.0888                 1.0861                 1.0885
 Frc consts  --      6.5666                 6.6018                 6.6178
 IR Inten    --      3.5148                 1.4198                 6.9351

                     64                     65                     66
                      A                      A                      A
 Frequencies --   3223.3456              3230.8536              3234.1492
 Red. masses --      1.0906                 1.0940                 1.0959
 Frc consts  --      6.6761                 6.7283                 6.7537
 IR Inten    --      5.3950                10.7764                11.5416

                     67                     68                     69
                      A                      A                      A
 Frequencies --   3238.3885              3239.8825              3422.8955
 Red. masses --      1.0994                 1.0995                 1.0678
 Frc consts  --      6.7933                 6.7997                 7.3713
 IR Inten    --     17.8392                12.7842               704.9035

 - Thermochemistry -
 -------------------
 Temperature   298.150 Kelvin.  Pressure   1.00000 Atm.
 Atom     1 has atomic number  6 and mass  12.00000

 Molecular mass:   227.04049 amu.
 Principal axes and moments of inertia in atomic units:
                           1         2         3
     Eigenvalues --  1315.205946362.875377678.08130
           X           -0.69658   0.71748   0.00000
           Y            0.71748   0.69658  -0.00001
           Z            0.00001   0.00001   1.00000
 This molecule is an asymmetric top.
 Rotational symmetry number  1.
 Warning -- assumption of classical behavior for rotation
           may cause significant error
 Rotational temperatures (Kelvin)      0.06586     0.01361     0.01128
 Rotational constants (GHZ):           1.37221     0.28364     0.23505
 Zero-point vibrational energy     499648.0 (Joules/Mol)
                                  119.41874 (Kcal/Mol)
 Warning -- explicit consideration of  18 degrees of freedom as
           vibrations may cause significant error
 Vibrational temperatures:     71.47    86.17   167.13   218.09   286.31
          (Kelvin)            354.15   383.57   428.74   472.12   586.88
                              631.41   674.60   732.19   742.57   774.19
                              787.90   827.41   852.16   928.12   975.26
                             1026.63  1050.62  1073.07  1088.49  1114.75
                             1127.77  1139.29  1215.54  1272.87  1277.99
                             1283.39  1397.43  1404.97  1420.84  1455.47
                             1461.25  1513.46  1541.26  1582.01  1654.68
                             1659.06  1693.53  1705.09  1793.57  1845.70
                             1850.84  1912.08  1930.60  1971.56  1982.81
                             2085.83  2142.44  2163.08  2191.74  2216.95
                             2295.50  2367.72  2388.15  2418.95  2459.04
                             4603.14  4621.30  4621.88  4637.68  4648.48
                             4653.22  4659.32  4661.47  4924.78

 Zero-point correction=                           0.190306 (Hartree/Particle)
 Thermal correction to Energy=                    0.202041
 Thermal correction to Enthalpy=                  0.202986
 Thermal correction to Gibbs Free Energy=         0.151645
 Sum of electronic and zero-point Energies=          -1028.640321
 Sum of electronic and thermal Energies=             -1028.628585
 Sum of electronic and thermal Enthalpies=           -1028.627641
 Sum of electronic and thermal Free Energies=        -1028.678981

                     E (Thermal)             CV                S
                      KCal/Mol        Cal/Mol-Kelvin    Cal/Mol-Kelvin
 Total                  126.783             47.781            108.055
 Electronic               0.000              0.000              0.000
 Translational            0.889              2.981             42.162
 Rotational               0.889              2.981             32.530
 Vibrational            125.005             41.819             33.363
 Vibration     1          0.595              1.978              4.830
 Vibration     2          0.597              1.973              4.461
 Vibration     3          0.608              1.936              3.163
 Vibration     4          0.619              1.901              2.652
 Vibration     5          0.637              1.841              2.142
 Vibration     6          0.661              1.769              1.758
 Vibration     7          0.672              1.734              1.618
 Vibration     8          0.691              1.677              1.428
 Vibration     9          0.711              1.619              1.269
 Vibration    10          0.772              1.453              0.934
 Vibration    11          0.799              1.385              0.830
 Vibration    12          0.826              1.319              0.741
 Vibration    13          0.864              1.230              0.636
 Vibration    14          0.871              1.214              0.619
 Vibration    15          0.893              1.166              0.569
 Vibration    16          0.903              1.145              0.549
 Vibration    17          0.931              1.085              0.495
 Vibration    18          0.950              1.048              0.463

 Optimization completed.
    -- Stationary point found.
 Normal termination of Gaussian 16 at Tue Oct 27 23:43:05 2020.
