 Gaussian 16, Revision C.01,
 Gaussian 16:  ES64L-G16RevC.01  3-Jul-2019

 ----------------------------------------------------------------------
 #p opt=addgic freq wb97xd/cc-pvdz nosymm int=ultrafine scrf=(solvent=C
 arbonTetraChloride)
 ----------------------------------------------------------------------

 ------------------------------------------------
 NM 2D-scan of HBT TD-WB97XD pVDZ in CTC Relaxed.
 ------------------------------------------------
 Symbolic Z-matrix:
 Charge =  0 Multiplicity = 1

 SCF Done:  E(RwB97XD) =  -1028.81402494     A.U. after   15 cycles
 SCF Done:  E(RwB97XD) =  -1028.82069658     A.U. after   13 cycles
 SCF Done:  E(RwB97XD) =  -1028.82220214     A.U. after   13 cycles
 SCF Done:  E(RwB97XD) =  -1028.82240288     A.U. after   11 cycles
 SCF Done:  E(RwB97XD) =  -1028.82245180     A.U. after   10 cycles
 SCF Done:  E(RwB97XD) =  -1028.82245708     A.U. after   10 cycles
 Optimization completed.
    -- Stationary point found.
 Normal termination of Gaussian 16 at Tue Oct 27 23:04:12 2020.

 --------------------------------------------------------------------
 #P Geom=AllCheck Guess=TCheck SCRF=Check GenChk RwB97XD/CC-pVDZ Freq
 --------------------------------------------------------------------

 Structure from the checkpoint file:  "config_6_9.chk"
 ------------------------------------------------
 NM 2D-scan of HBT TD-WB97XD pVDZ in CTC Relaxed.
 ------------------------------------------------
 Charge =  0 Multiplicity = 1

                          Input orientation:
 ---------------------------------------------------------------------
 Center     Atomic      Atomic             Coordinates (Angstroms)
 Number     Number       Type             X           Y           Z
 ---------------------------------------------------------------------
      1          6           0        1.645485   -3.257664   -0.000033
      2          6           0        1.004525   -2.020737   -0.000018
      3          6           0        1.721602   -0.817756   -0.000007
      4          6           0        3.121255   -0.837350   -0.000011
      5          6           0        3.762381   -2.071276   -0.000025
      6          6           0        3.034292   -3.270376   -0.000036
      7          1           0        1.073753   -4.185864   -0.000042
      8          1           0        3.683844    0.096600   -0.000004
      9          1           0        4.852694   -2.106941   -0.000028
     10          1           0        3.562540   -4.224668   -0.000047
     11          7           0        0.893694    0.290076    0.000002
     12         16           0       -0.720480   -1.696776   -0.000008
     13          6           0       -1.374932    1.074521    0.000017
     14          6           0       -2.754127    0.831552    0.000016
     15          6           0       -0.865053    2.406150    0.000031
     16          6           0       -3.661860    1.879607    0.000027
     17          1           0       -3.115652   -0.200086    0.000005
     18          6           0       -1.812201    3.459000    0.000040
     19          6           0       -3.174725    3.194362    0.000038
     20          1           0       -4.733912    1.682669    0.000027
     21          1           0       -1.438809    4.484023    0.000049
     22          1           0       -3.879024    4.029105    0.000045
     23          6           0       -0.388157    0.009420    0.000003
     24          8           0        0.426798    2.630327    0.000034
     25          1           0        0.906869    1.658893    0.000020
 ---------------------------------------------------------------------

 SCF Done:  E(RwB97XD) =  -1028.82245708     A.U. after    1 cycles

 Alpha  occ. eigenvalues --  -89.09134 -19.25759 -14.47633 -10.39834 -10.36908
 Alpha  occ. eigenvalues --  -10.35550 -10.35081 -10.32585 -10.32112 -10.31856
 Alpha  occ. eigenvalues --  -10.31807 -10.31684 -10.31634 -10.31198 -10.29876
 Alpha  occ. eigenvalues --  -10.29720  -8.11203  -6.06057  -6.05692  -6.05250
 Alpha  occ. eigenvalues --   -1.15079  -1.09525  -0.97566  -0.95922  -0.92150
 Alpha  occ. eigenvalues --   -0.88747  -0.85685  -0.84136  -0.83041  -0.75642
 Alpha  occ. eigenvalues --   -0.71509  -0.70650  -0.69229  -0.68309  -0.63381
 Alpha  occ. eigenvalues --   -0.60827  -0.59182  -0.58002  -0.56145  -0.54675
 Alpha  occ. eigenvalues --   -0.54534  -0.53475  -0.52585  -0.51041  -0.49932
 Alpha  occ. eigenvalues --   -0.49687  -0.47189  -0.46240  -0.45291  -0.45142
 Alpha  occ. eigenvalues --   -0.44047  -0.42989  -0.42463  -0.40152  -0.36304
 Alpha  occ. eigenvalues --   -0.35726  -0.32543  -0.31569  -0.28504
 Alpha virt. eigenvalues --   -0.00629   0.04538   0.06767   0.07551   0.07663
 Alpha virt. eigenvalues --    0.11174   0.14319   0.15041   0.16505   0.17875
 Alpha virt. eigenvalues --    0.19072   0.20855   0.21763   0.22429   0.22713

 Mulliken charges:
               1
     1  C    0.014175
     2  C   -0.229283
     3  C    0.258651
     4  C   -0.012882
     5  C    0.006513
     6  C    0.002759
     7  H    0.020338
     8  H    0.023516
     9  H    0.022456
    10  H    0.023022
    11  N   -0.325394
    12  S    0.162914
    13  C   -0.080664
    14  C   -0.020343
    15  C    0.094537
    16  C   -0.014768
    17  H    0.010408
    18  C   -0.007088
    19  C    0.022034
    20  H    0.007510
    21  H    0.011808
    22  H    0.017091
    23  C    0.080096
    24  O   -0.273375
    25  H    0.185968
 Sum of Mulliken charges =  -0.00000

 Dipole moment (field-independent basis, Debye):
    X=              0.4225    Y=             -3.3928    Z=             -0.0000  Tot=              3.4190
 Quadrupole moment (field-independent basis, Debye-Ang):
   XX=            -82.6954   YY=            -91.0691   ZZ=           -103.9960
   XY=             -7.2019   XZ=             -0.0001   YZ=              0.0001

  Exact polarizability:     276.606     -70.122     258.821      -0.001       0.002      62.894
 Approx polarizability:     263.358     -24.812     244.066      -0.001       0.002      82.161

                      1                      2                      3
                      A                      A                      A
 Frequencies --     22.6746                65.8134               124.4046
 Red. masses --      5.3147                 6.1348                 5.5134
 Frc consts  --      0.0016                 0.0157                 0.0503
 IR Inten    --      0.0240                 1.4090                 5.9783

                      4                      5                      6
                      A                      A                      A
 Frequencies --    153.0914               197.5980               243.6358
 Red. masses --      5.0740                 6.0094                 5.7349
 Frc consts  --      0.0701                 0.1382                 0.2006
 IR Inten    --      0.3116                 0.4099                 0.1457

                      7                      8                      9
                      A                      A                      A
 Frequencies --    274.3453               327.2274               334.1251
 Red. masses --      7.2586                 5.1906                 5.4271
 Frc consts  --      0.3219                 0.3275                 0.3570
 IR Inten    --      1.3927                 0.2848                42.4816

                     10                     11                     12
                      A                      A                      A
 Frequencies --    417.8608               435.3203               461.2225
 Red. masses --     10.4240                 3.1162                 3.6198
 Frc consts  --      1.0724                 0.3479                 0.4537
 IR Inten    --      0.7776                 1.9755                 8.2518

                     13                     14                     15
                      A                      A                      A
 Frequencies --    506.5638               520.1941               539.1278
 Red. masses --      5.3333                 7.3693                 3.4214
 Frc consts  --      0.8063                 1.1749                 0.5859
 IR Inten    --     49.3266                21.3498                 3.5893

                     16                     17                     18
                      A                      A                      A
 Frequencies --    561.9082               574.3430               589.7696
 Red. masses --      7.0468                 3.6807                 7.6855
 Frc consts  --      1.3109                 0.7154                 1.5750
 IR Inten    --     12.7919                 0.0910                 1.7342

                     19                     20                     21
                      A                      A                      A
 Frequencies --    648.8931               688.4180               722.7084
 Red. masses --      6.4405                 6.2969                 6.5899
 Frc consts  --      1.5978                 1.7582                 2.0279
 IR Inten    --      0.0117                14.1019                26.2811

                     22                     23                     24
                      A                      A                      A
 Frequencies --    755.5394               768.8286               769.6492
 Red. masses --      2.1314                 2.2851                 9.7239
 Frc consts  --      0.7169                 0.7958                 3.3937
 IR Inten    --     22.8217                12.2215                18.6025

                     25                     26                     27
                      A                      A                      A
 Frequencies --    775.8048               784.0359               853.1773
 Red. masses --      1.6374                 1.8195                 6.0089
 Frc consts  --      0.5806                 0.6590                 2.5771
 IR Inten    --     51.0409                41.6126                14.2639

                     28                     29                     30
                      A                      A                      A
 Frequencies --    881.8472               886.2244               913.0769
 Red. masses --      1.5897                 1.4038                 6.5752
 Frc consts  --      0.7284                 0.6496                 3.2298
 IR Inten    --      5.7110                 0.3889                12.0707

                     31                     32                     33
                      A                      A                      A
 Frequencies --    968.2974               975.3537              1005.9181
 Red. masses --      1.3551                 1.3626                 7.1547
 Frc consts  --      0.7486                 0.7637                 4.2655
 IR Inten    --      1.1125                 1.1762                74.3715

                     34                     35                     36
                      A                      A                      A
 Frequencies --   1010.5293              1016.3571              1053.6302
 Red. masses --      1.3015                 1.3051                 2.0132
 Frc consts  --      0.7831                 0.7943                 1.3168
 IR Inten    --      0.2313                 0.0000                11.2684

                     37                     38                     39
                      A                      A                      A
 Frequencies --   1065.3257              1101.8749              1115.1532
 Red. masses --      1.9073                 3.8727                 1.0597
 Frc consts  --      1.2754                 2.7703                 0.7764
 IR Inten    --      7.1524                 4.3412                70.0560

                     40                     41                     42
                      A                      A                      A
 Frequencies --   1147.9093              1155.7786              1167.8658
 Red. masses --      1.4661                 1.3595                 1.2447
 Frc consts  --      1.1382                 1.0700                 1.0002
 IR Inten    --     42.5612                 2.9733                11.3384

                     43                     44                     45
                      A                      A                      A
 Frequencies --   1185.2994              1237.4213              1263.9863
 Red. masses --      1.1966                 1.8641                 2.2431
 Frc consts  --      0.9905                 1.6817                 2.1115
 IR Inten    --      2.9286               334.5843                45.1304

                     46                     47                     48
                      A                      A                      A
 Frequencies --   1289.4151              1313.0322              1360.4208
 Red. masses --      1.5157                 3.2176                 4.1286
 Frc consts  --      1.4847                 3.2684                 4.5020
 IR Inten    --      2.7703               284.8924                 1.1832

                     49                     50                     51
                      A                      A                      A
 Frequencies --   1380.6900              1384.4017              1430.9760
 Red. masses --      4.5635                 4.4102                 2.4218
 Frc consts  --      5.1256                 4.9800                 2.9218
 IR Inten    --     10.9782                16.7330                48.7871

                     52                     53                     54
                      A                      A                      A
 Frequencies --   1491.5400              1499.3302              1519.1832
 Red. masses --      2.7601                 2.7878                 3.7021
 Frc consts  --      3.6177                 3.6924                 5.0340
 IR Inten    --     21.7891                25.6351                65.0161

                     55                     56                     57
                      A                      A                      A
 Frequencies --   1577.1023              1609.3808              1653.9213
 Red. masses --      6.3042                 3.8219                 5.4044
 Frc consts  --      9.2384                 5.8323                 8.7101
 IR Inten    --    291.3878                80.8689               454.5258

                     58                     59                     60
                      A                      A                      A
 Frequencies --   1663.6828              1695.2921              1727.0133
 Red. masses --      6.0625                 6.4977                 2.4465
 Frc consts  --      9.8866                11.0027                 4.2992
 IR Inten    --    262.7363               266.6214               589.0757

                     61                     62                     63
                      A                      A                      A
 Frequencies --   1933.9645              3193.6391              3203.3259
 Red. masses --      1.1394                 1.0893                 1.0887
 Frc consts  --      2.5108                 6.5457                 6.5818
 IR Inten    --    708.5237                 4.2908                 7.7133

                     64                     65                     66
                      A                      A                      A
 Frequencies --   3214.1663              3225.2881              3226.0770
 Red. masses --      1.0863                 1.0908                 1.0938
 Frc consts  --      6.6124                 6.6855                 6.7074
 IR Inten    --      2.0695                 3.6852                14.4868

                     67                     68                     69
                      A                      A                      A
 Frequencies --   3235.9666              3236.4624              3241.5912
 Red. masses --      1.0960                 1.0980                 1.0996
 Frc consts  --      6.7620                 6.7762                 6.8076
 IR Inten    --      8.5640                17.5321                12.2283

 - Thermochemistry -
 -------------------
 Temperature   298.150 Kelvin.  Pressure   1.00000 Atm.
 Atom     1 has atomic number  6 and mass  12.00000

 Molecular mass:   227.04049 amu.
 Principal axes and moments of inertia in atomic units:
                           1         2         3
     Eigenvalues --  1288.950176262.646737551.59690
           X           -0.70627   0.70794   0.00000
           Y            0.70794   0.70627  -0.00001
           Z            0.00001   0.00001   1.00000
 This molecule is an asymmetric top.
 Rotational symmetry number  1.
 Warning -- assumption of classical behavior for rotation
           may cause significant error
 Rotational temperatures (Kelvin)      0.06720     0.01383     0.01147
 Rotational constants (GHZ):           1.40016     0.28818     0.23899
 Zero-point vibrational energy     493902.2 (Joules/Mol)
                                  118.04545 (Kcal/Mol)
 Warning -- explicit consideration of  18 degrees of freedom as
           vibrations may cause significant error
 Vibrational temperatures:     32.62    94.69   178.99   220.26   284.30
          (Kelvin)            350.54   394.72   470.81   480.73   601.21
                              626.33   663.60   728.83   748.44   775.68
                              808.46   826.35   848.55   933.61   990.48
                             1039.82  1087.05  1106.17  1107.35  1116.21
                             1128.05  1227.53  1268.78  1275.08  1313.71
                             1393.16  1403.32  1447.29  1453.93  1462.31
                             1515.94  1532.77  1585.35  1604.46  1651.59
                             1662.91  1680.30  1705.38  1780.37  1818.59
                             1855.18  1889.16  1957.34  1986.50  1991.85
                             2058.86  2145.99  2157.20  2185.77  2269.10
                             2315.54  2379.62  2393.67  2439.15  2484.79
                             2782.54  4594.93  4608.87  4624.47  4640.47
                             4641.61  4655.83  4656.55  4663.93

 Zero-point correction=                           0.188117 (Hartree/Particle)
 Thermal correction to Energy=                    0.199731
 Thermal correction to Enthalpy=                  0.200675
 Thermal correction to Gibbs Free Energy=         0.149016
 Sum of electronic and zero-point Energies=          -1028.634340
 Sum of electronic and thermal Energies=             -1028.622726
 Sum of electronic and thermal Enthalpies=           -1028.621782
 Sum of electronic and thermal Free Energies=        -1028.673441

                     E (Thermal)             CV                S
                      KCal/Mol        Cal/Mol-Kelvin    Cal/Mol-Kelvin
 Total                  125.333             47.091            108.726
 Electronic               0.000              0.000              0.000
 Translational            0.889              2.981             42.162
 Rotational               0.889              2.981             32.477
 Vibrational            123.556             41.129             34.087
 Vibration     1          0.593              1.985              6.385
 Vibration     2          0.597              1.971              4.275
 Vibration     3          0.610              1.929              3.031
 Vibration     4          0.619              1.899              2.633
 Vibration     5          0.637              1.843              2.155
 Vibration     6          0.659              1.773              1.776
 Vibration     7          0.677              1.721              1.569
 Vibration     8          0.711              1.621              1.274
 Vibration     9          0.716              1.607              1.240
 Vibration    10          0.781              1.431              0.899
 Vibration    11          0.796              1.393              0.841
 Vibration    12          0.819              1.336              0.763
 Vibration    13          0.862              1.235              0.642
 Vibration    14          0.875              1.205              0.610
 Vibration    15          0.894              1.164              0.567
 Vibration    16          0.918              1.114              0.520
 Vibration    17          0.931              1.087              0.496
 Vibration    18          0.947              1.054              0.468

 Optimization completed.
    -- Stationary point found.
 Normal termination of Gaussian 16 at Tue Oct 27 23:10:51 2020.
