 Gaussian 16, Revision C.01,
 Gaussian 16:  ES64L-G16RevC.01  3-Jul-2019

 ----------------------------------------------------------------------
 #p opt=addgic freq wb97xd/cc-pvdz nosymm int=ultrafine scrf=(solvent=C
 arbonTetraChloride)
 ----------------------------------------------------------------------

 ------------------------------------------------
 NM 2D-scan of HBT TD-WB97XD pVDZ in CTC Relaxed.
 ------------------------------------------------
 Symbolic Z-matrix:
 Charge =  0 Multiplicity = 1

 SCF Done:  E(RwB97XD) =  -1028.80671751     A.U. after   15 cycles
 SCF Done:  E(RwB97XD) =  -1028.82866452     A.U. after   13 cycles
 SCF Done:  E(RwB97XD) =  -1028.83026702     A.U. after   12 cycles
 SCF Done:  E(RwB97XD) =  -1028.83042754     A.U. after   11 cycles
 SCF Done:  E(RwB97XD) =  -1028.83047278     A.U. after   10 cycles
 SCF Done:  E(RwB97XD) =  -1028.83047624     A.U. after    9 cycles
 Optimization completed.
    -- Stationary point found.
 Normal termination of Gaussian 16 at Wed Oct 28 00:17:34 2020.

 --------------------------------------------------------------------
 #P Geom=AllCheck Guess=TCheck SCRF=Check GenChk RwB97XD/CC-pVDZ Freq
 --------------------------------------------------------------------

 Structure from the checkpoint file:  "config_3_13.chk"
 ------------------------------------------------
 NM 2D-scan of HBT TD-WB97XD pVDZ in CTC Relaxed.
 ------------------------------------------------
 Charge =  0 Multiplicity = 1

                          Input orientation:
 ---------------------------------------------------------------------
 Center     Atomic      Atomic             Coordinates (Angstroms)
 Number     Number       Type             X           Y           Z
 ---------------------------------------------------------------------
      1          6           0        1.597861   -3.288012   -0.000024
      2          6           0        0.986419   -2.033607   -0.000007
      3          6           0        1.734838   -0.843142   -0.000012
      4          6           0        3.134337   -0.905431   -0.000036
      5          6           0        3.745653   -2.152182   -0.000052
      6          6           0        2.986061   -3.333548   -0.000046
      7          1           0        1.004762   -4.202921   -0.000021
      8          1           0        3.717988    0.015730   -0.000040
      9          1           0        4.834769   -2.215823   -0.000070
     10          1           0        3.491171   -4.300518   -0.000061
     11          7           0        0.967417    0.309816    0.000008
     12         16           0       -0.719725   -1.654957    0.000018
     13          6           0       -1.328284    1.103164    0.000044
     14          6           0       -2.699898    0.802760    0.000036
     15          6           0       -0.909136    2.457596    0.000045
     16          6           0       -3.655069    1.805543    0.000014
     17          1           0       -3.019626   -0.242070    0.000037
     18          6           0       -1.888238    3.466485    0.000016
     19          6           0       -3.236703    3.142434    0.000001
     20          1           0       -4.715814    1.554886    0.000004
     21          1           0       -1.554303    4.504756    0.000016
     22          1           0       -3.978344    3.943585   -0.000017
     23          6           0       -0.313650    0.054280    0.000034
     24          8           0        0.376905    2.802651    0.000089
     25          1           0        0.911535    1.956524    0.000138
 ---------------------------------------------------------------------

 SCF Done:  E(RwB97XD) =  -1028.83047624     A.U. after    1 cycles

 Alpha  occ. eigenvalues --  -89.08627 -19.27930 -14.47035 -10.39403 -10.37357
 Alpha  occ. eigenvalues --  -10.34995 -10.34757 -10.32305 -10.32190 -10.31863
 Alpha  occ. eigenvalues --  -10.31690 -10.31592 -10.31484 -10.31430 -10.30247
 Alpha  occ. eigenvalues --  -10.30155  -8.10689  -6.05539  -6.05181  -6.04739
 Alpha  occ. eigenvalues --   -1.16396  -1.08945  -0.97297  -0.96215  -0.91706
 Alpha  occ. eigenvalues --   -0.88593  -0.85434  -0.84570  -0.82936  -0.75494
 Alpha  occ. eigenvalues --   -0.71470  -0.70602  -0.69426  -0.68168  -0.63214
 Alpha  occ. eigenvalues --   -0.60547  -0.58828  -0.58428  -0.56432  -0.54528
 Alpha  occ. eigenvalues --   -0.54099  -0.53231  -0.52825  -0.50855  -0.50355
 Alpha  occ. eigenvalues --   -0.49315  -0.47577  -0.45939  -0.45422  -0.45018
 Alpha  occ. eigenvalues --   -0.43969  -0.42950  -0.42602  -0.39793  -0.37194
 Alpha  occ. eigenvalues --   -0.36211  -0.32109  -0.31719  -0.29102
 Alpha virt. eigenvalues --   -0.00467   0.04836   0.06817   0.07177   0.07845
 Alpha virt. eigenvalues --    0.11419   0.14303   0.15193   0.16672   0.18018
 Alpha virt. eigenvalues --    0.18927   0.20942   0.21662   0.22563   0.22751

 Mulliken charges:
               1
     1  C    0.011588
     2  C   -0.214180
     3  C    0.224077
     4  C   -0.015690
     5  C    0.005097
     6  C    0.001054
     7  H    0.018703
     8  H    0.018707
     9  H    0.019932
    10  H    0.021457
    11  N   -0.350695
    12  S    0.147241
    13  C   -0.053564
    14  C   -0.027049
    15  C    0.068273
    16  C   -0.006450
    17  H    0.016594
    18  C    0.006755
    19  C    0.020846
    20  H    0.009689
    21  H    0.016457
    22  H    0.018713
    23  C    0.085317
    24  O   -0.208551
    25  H    0.165677
 Sum of Mulliken charges =  -0.00000

 Dipole moment (field-independent basis, Debye):
    X=             -0.0780    Y=             -2.5660    Z=              0.0000  Tot=              2.5672
 Quadrupole moment (field-independent basis, Debye-Ang):
   XX=            -82.7288   YY=            -90.1258   ZZ=           -104.0779
   XY=             -7.1956   XZ=             -0.0000   YZ=              0.0000

  Exact polarizability:     274.044     -67.174     254.877      -0.001       0.001      62.922
 Approx polarizability:     262.019     -23.056     242.202      -0.001       0.001      82.160

                      1                      2                      3
                      A                      A                      A
 Frequencies --     40.7223                61.6899               123.6888
 Red. masses --      5.5581                 5.6995                 5.6458
 Frc consts  --      0.0054                 0.0128                 0.0509
 IR Inten    --      0.0868                 1.1658                 1.3997

                      4                      5                      6
                      A                      A                      A
 Frequencies --    152.1250               198.1019               245.5122
 Red. masses --      5.0211                 5.9979                 5.6659
 Frc consts  --      0.0685                 0.1387                 0.2012
 IR Inten    --      0.0404                 0.6997                 0.0265

                      7                      8                      9
                      A                      A                      A
 Frequencies --    273.7891               316.2138               328.8871
 Red. masses --      7.5852                 6.4541                 5.1025
 Frc consts  --      0.3350                 0.3802                 0.3252
 IR Inten    --      0.9159                 7.0058                 0.1366

                     10                     11                     12
                      A                      A                      A
 Frequencies --    413.8897               437.7042               466.6231
 Red. masses --      9.7304                 3.1229                 3.6646
 Frc consts  --      0.9821                 0.3525                 0.4701
 IR Inten    --      0.1608                 1.9559                 8.0243

                     13                     14                     15
                      A                      A                      A
 Frequencies --    516.6541               523.7715               537.8111
 Red. masses --      8.6242                 5.2406                 3.4639
 Frc consts  --      1.3563                 0.8471                 0.5903
 IR Inten    --      0.1237                 9.4490                 3.6166

                     16                     17                     18
                      A                      A                      A
 Frequencies --    551.6717               575.6245               591.8869
 Red. masses --      7.8519                 3.7314                 7.6730
 Frc consts  --      1.4079                 0.7285                 1.5838
 IR Inten    --      2.4085                 0.0288                 5.0980

                     19                     20                     21
                      A                      A                      A
 Frequencies --    647.2701               680.9641               723.4299
 Red. masses --      6.1068                 6.5568                 6.7972
 Frc consts  --      1.5074                 1.7914                 2.0959
 IR Inten    --      0.0170                 4.5393                25.7533

                     22                     23                     24
                      A                      A                      A
 Frequencies --    742.6924               756.1474               764.9468
 Red. masses --      9.9672                 1.9650                 3.1767
 Frc consts  --      3.2392                 0.6620                 1.0952
 IR Inten    --     13.2900                29.8213                 0.9400

                     25                     26                     27
                      A                      A                      A
 Frequencies --    775.7016               786.6500               848.8538
 Red. masses --      1.3286                 1.9427                 5.9359
 Frc consts  --      0.4710                 0.7083                 2.5200
 IR Inten    --     63.7007                36.0772                18.6507

                     28                     29                     30
                      A                      A                      A
 Frequencies --    878.4201               883.8867               888.2764
 Red. masses --      1.1653                 1.4785                 1.3855
 Frc consts  --      0.5298                 0.6806                 0.6441
 IR Inten    --     72.1192                 0.3485                10.8545

                     31                     32                     33
                      A                      A                      A
 Frequencies --    895.8273               969.5570               975.8753
 Red. masses --      6.5742                 1.3608                 1.3655
 Frc consts  --      3.1084                 0.7537                 0.7662
 IR Inten    --      2.8697                 1.0009                 1.7605

                     34                     35                     36
                      A                      A                      A
 Frequencies --    997.6929              1011.2974              1015.5709
 Red. masses --      7.6202                 1.3028                 1.3050
 Frc consts  --      4.4690                 0.7850                 0.7930
 IR Inten    --     53.5800                 0.4238                 0.0269

                     37                     38                     39
                      A                      A                      A
 Frequencies --   1052.4318              1069.1127              1102.8179
 Red. masses --      1.9992                 1.9312                 3.8738
 Frc consts  --      1.3047                 1.3005                 2.7759
 IR Inten    --      8.5676                10.3220                 5.8268

                     40                     41                     42
                      A                      A                      A
 Frequencies --   1151.5913              1155.4657              1175.4146
 Red. masses --      1.4632                 1.3383                 1.1227
 Frc consts  --      1.1433                 1.0528                 0.9139
 IR Inten    --      7.0703                 3.2707                40.5103

                     43                     44                     45
                      A                      A                      A
 Frequencies --   1184.8669              1255.7449              1285.5823
 Red. masses --      1.2184                 1.8837                 1.6446
 Frc consts  --      1.0078                 1.7501                 1.6014
 IR Inten    --      0.4088                99.0876                 5.7052

                     46                     47                     48
                      A                      A                      A
 Frequencies --   1290.2136              1332.7987              1347.7826
 Red. masses --      2.5930                 3.0908                 4.1604
 Frc consts  --      2.5432                 3.2348                 4.4527
 IR Inten    --    153.7154                25.9498                11.1261

                     49                     50                     51
                      A                      A                      A
 Frequencies --   1373.5547              1379.2196              1477.4704
 Red. masses --      7.5545                 4.1496                 2.2244
 Frc consts  --      8.3974                 4.6508                 2.8609
 IR Inten    --     14.0793                17.1454                12.2871

                     52                     53                     54
                      A                      A                      A
 Frequencies --   1489.6761              1505.3730              1528.1388
 Red. masses --      2.5846                 2.8988                 3.8069
 Frc consts  --      3.3793                 3.8704                 5.2378
 IR Inten    --     47.7098                10.1150               119.5135

                     55                     56                     57
                      A                      A                      A
 Frequencies --   1564.8254              1591.1832              1648.5740
 Red. masses --      2.2817                 4.9499                 6.8227
 Frc consts  --      3.2919                 7.3839                10.9250
 IR Inten    --    178.3348               137.7293                 5.4003

                     58                     59                     60
                      A                      A                      A
 Frequencies --   1674.0727              1679.5308              1709.6824
 Red. masses --      3.6218                 6.6949                 4.9029
 Frc consts  --      5.9803                11.1267                 8.4437
 IR Inten    --    153.8179                18.2806               137.4829

                     61                     62                     63
                      A                      A                      A
 Frequencies --   3128.0435              3201.6476              3211.4711
 Red. masses --      1.0700                 1.0884                 1.0888
 Frc consts  --      6.1683                 6.5730                 6.6163
 IR Inten    --   1014.5567                 7.7861                 3.7556

                     64                     65                     66
                      A                      A                      A
 Frequencies --   3212.0743              3223.1262              3230.2375
 Red. masses --      1.0861                 1.0906                 1.0940
 Frc consts  --      6.6022                 6.6750                 6.7255
 IR Inten    --      1.5024                 3.8437                12.0125

                     67                     68                     69
                      A                      A                      A
 Frequencies --   3233.5982              3237.9767              3239.4657
 Red. masses --      1.0960                 1.0993                 1.0995
 Frc consts  --      6.7518                 6.7906                 6.7984
 IR Inten    --      9.6237                17.1305                12.2332

 - Thermochemistry -
 -------------------
 Temperature   298.150 Kelvin.  Pressure   1.00000 Atm.
 Atom     1 has atomic number  6 and mass  12.00000

 Molecular mass:   227.04049 amu.
 Principal axes and moments of inertia in atomic units:
                           1         2         3
     Eigenvalues --  1298.595116327.526557626.12165
           X           -0.70005   0.71409   0.00000
           Y            0.71409   0.70005  -0.00001
           Z            0.00001   0.00000   1.00000
 This molecule is an asymmetric top.
 Rotational symmetry number  1.
 Warning -- assumption of classical behavior for rotation
           may cause significant error
 Rotational temperatures (Kelvin)      0.06670     0.01369     0.01136
 Rotational constants (GHZ):           1.38976     0.28522     0.23665
 Zero-point vibrational energy     499693.3 (Joules/Mol)
                                  119.42956 (Kcal/Mol)
 Warning -- explicit consideration of  18 degrees of freedom as
           vibrations may cause significant error
 Vibrational temperatures:     58.59    88.76   177.96   218.87   285.02
          (Kelvin)            353.24   393.92   454.96   473.20   595.50
                              629.76   671.37   743.35   753.59   773.79
                              793.73   828.20   851.59   931.28   979.76
                             1040.85  1068.57  1087.93  1100.59  1116.06
                             1131.81  1221.31  1263.85  1271.72  1278.03
                             1288.90  1394.98  1404.07  1435.46  1455.03
                             1461.18  1514.21  1538.21  1586.71  1656.88
                             1662.46  1691.16  1704.76  1806.74  1849.67
                             1856.33  1917.60  1939.16  1976.24  1984.39
                             2125.75  2143.31  2165.90  2198.65  2251.43
                             2289.36  2371.93  2408.62  2416.47  2459.85
                             4500.56  4606.46  4620.59  4621.46  4637.36
                             4647.59  4652.43  4658.73  4660.87

 Zero-point correction=                           0.190323 (Hartree/Particle)
 Thermal correction to Energy=                    0.201966
 Thermal correction to Enthalpy=                  0.202910
 Thermal correction to Gibbs Free Energy=         0.151636
 Sum of electronic and zero-point Energies=          -1028.640153
 Sum of electronic and thermal Energies=             -1028.628510
 Sum of electronic and thermal Enthalpies=           -1028.627566
 Sum of electronic and thermal Free Energies=        -1028.678841

                     E (Thermal)             CV                S
                      KCal/Mol        Cal/Mol-Kelvin    Cal/Mol-Kelvin
 Total                  126.736             47.403            107.917
 Electronic               0.000              0.000              0.000
 Translational            0.889              2.981             42.162
 Rotational               0.889              2.981             32.505
 Vibrational            124.958             41.441             33.250
 Vibration     1          0.594              1.981              5.224
 Vibration     2          0.597              1.973              4.402
 Vibration     3          0.610              1.929              3.042
 Vibration     4          0.619              1.900              2.645
 Vibration     5          0.637              1.843              2.151
 Vibration     6          0.660              1.770              1.763
 Vibration     7          0.676              1.722              1.572
 Vibration     8          0.703              1.643              1.330
 Vibration     9          0.712              1.618              1.266
 Vibration    10          0.777              1.440              0.913
 Vibration    11          0.798              1.388              0.834
 Vibration    12          0.824              1.324              0.747
 Vibration    13          0.872              1.213              0.618
 Vibration    14          0.879              1.197              0.601
 Vibration    15          0.893              1.166              0.570
 Vibration    16          0.907              1.136              0.541
 Vibration    17          0.932              1.084              0.494
 Vibration    18          0.949              1.049              0.464

 Optimization completed.
    -- Stationary point found.
 Normal termination of Gaussian 16 at Wed Oct 28 00:24:09 2020.
