 Gaussian 16, Revision C.01,
 Gaussian 16:  ES64L-G16RevC.01  3-Jul-2019

 ----------------------------------------------------------------------
 #p opt=addgic freq wb97xd/cc-pvdz nosymm int=ultrafine scrf=(solvent=C
 arbonTetraChloride)
 ----------------------------------------------------------------------

 ------------------------------------------------
 NM 2D-scan of HBT TD-WB97XD pVDZ in CTC Relaxed.
 ------------------------------------------------
 Symbolic Z-matrix:
 Charge =  0 Multiplicity = 1

 SCF Done:  E(RwB97XD) =  -1028.33569086     A.U. after   16 cycles
 SCF Done:  E(RwB97XD) =  -1028.64031936     A.U. after   14 cycles
 SCF Done:  E(RwB97XD) =  -1028.76879997     A.U. after   14 cycles
 SCF Done:  E(RwB97XD) =  -1028.78604773     A.U. after   14 cycles
 SCF Done:  E(RwB97XD) =  -1028.78925929     A.U. after   13 cycles
 SCF Done:  E(RwB97XD) =  -1028.78963916     A.U. after   12 cycles
 SCF Done:  E(RwB97XD) =  -1028.78969116     A.U. after   11 cycles
 SCF Done:  E(RwB97XD) =  -1028.78969366     A.U. after    9 cycles
 Optimization completed.
    -- Stationary point found.
 Normal termination of Gaussian 16 at Wed Oct 28 01:55:37 2020.

 --------------------------------------------------------------------
 #P Geom=AllCheck Guess=TCheck SCRF=Check GenChk RwB97XD/CC-pVDZ Freq
 --------------------------------------------------------------------

 Structure from the checkpoint file:  "config_12_18.chk"
 ------------------------------------------------
 NM 2D-scan of HBT TD-WB97XD pVDZ in CTC Relaxed.
 ------------------------------------------------
 Charge =  0 Multiplicity = 1

                          Input orientation:
 ---------------------------------------------------------------------
 Center     Atomic      Atomic             Coordinates (Angstroms)
 Number     Number       Type             X           Y           Z
 ---------------------------------------------------------------------
      1          6           0        1.542484   -3.283691   -0.000068
      2          6           0        1.003296   -2.005952   -0.000044
      3          6           0        1.807898   -0.885733   -0.000006
      4          6           0        3.199162   -0.991533    0.000011
      5          6           0        3.744338   -2.277262   -0.000011
      6          6           0        2.927907   -3.411313   -0.000051
      7          1           0        0.896116   -4.160862   -0.000097
      8          1           0        3.838205   -0.106939    0.000042
      9          1           0        4.829104   -2.391033    0.000004
     10          1           0        3.378544   -4.403978   -0.000066
     11          7           0        1.019832    0.264152    0.000014
     12         16           0       -0.694937   -1.542692   -0.000046
     13          6           0       -1.327924    1.146774    0.000039
     14          6           0       -2.696435    0.773447    0.000071
     15          6           0       -0.903665    2.540721    0.000013
     16          6           0       -3.697156    1.714114    0.000067
     17          1           0       -2.966466   -0.286426    0.000102
     18          6           0       -2.031504    3.494642   -0.000009
     19          6           0       -3.343411    3.091675    0.000018
     20          1           0       -4.743649    1.407679    0.000094
     21          1           0       -1.779735    4.557388   -0.000044
     22          1           0       -4.140398    3.840303    0.000002
     23          6           0       -0.330205    0.147929    0.000014
     24          8           0        0.296963    2.822251   -0.000005
     25          1           0        1.634332    1.035822    0.000047
 ---------------------------------------------------------------------

 SCF Done:  E(RwB97XD) =  -1028.78969366     A.U. after    1 cycles

 Alpha  occ. eigenvalues --  -89.09628 -19.20939 -14.52591 -10.41841 -10.37035
 Alpha  occ. eigenvalues --  -10.35857 -10.35598 -10.33297 -10.33223 -10.32723
 Alpha  occ. eigenvalues --  -10.32322 -10.31022 -10.30675 -10.30179 -10.29068
 Alpha  occ. eigenvalues --  -10.28640  -8.11746  -6.06632  -6.06229  -6.05748
 Alpha  occ. eigenvalues --   -1.12976  -1.10211  -0.98676  -0.95789  -0.93328
 Alpha  occ. eigenvalues --   -0.89128  -0.86741  -0.83873  -0.81540  -0.75568
 Alpha  occ. eigenvalues --   -0.74510  -0.71916  -0.69554  -0.67787  -0.64255
 Alpha  occ. eigenvalues --   -0.60897  -0.59752  -0.56670  -0.56034  -0.55990
 Alpha  occ. eigenvalues --   -0.55009  -0.53744  -0.52951  -0.49991  -0.49306
 Alpha  occ. eigenvalues --   -0.48999  -0.48235  -0.46734  -0.45700  -0.44749
 Alpha  occ. eigenvalues --   -0.44481  -0.42779  -0.41858  -0.40345  -0.36965
 Alpha  occ. eigenvalues --   -0.33634  -0.31672  -0.30999  -0.25967
 Alpha virt. eigenvalues --   -0.01368   0.03726   0.05800   0.07197   0.09694
 Alpha virt. eigenvalues --    0.11380   0.14017   0.14570   0.15813   0.16532
 Alpha virt. eigenvalues --    0.17822   0.19659   0.20967   0.21587   0.22756

 Mulliken charges:
               1
     1  C    0.015344
     2  C   -0.228993
     3  C    0.188767
     4  C   -0.015254
     5  C    0.009141
     6  C    0.005791
     7  H    0.022939
     8  H    0.030426
     9  H    0.027890
    10  H    0.026068
    11  N   -0.105441
    12  S    0.176007
    13  C   -0.081175
    14  C   -0.021609
    15  C    0.091312
    16  C   -0.034797
    17  H    0.012967
    18  C   -0.052524
    19  C    0.029782
    20  H    0.001698
    21  H    0.001535
    22  H    0.014112
    23  C    0.112017
    24  O   -0.344558
    25  H    0.118557
 Sum of Mulliken charges =  -0.00000

 Dipole moment (field-independent basis, Debye):
    X=              2.4095    Y=             -5.5100    Z=              0.0000  Tot=              6.0137
 Quadrupole moment (field-independent basis, Debye-Ang):
   XX=            -80.4987   YY=            -96.6354   ZZ=           -103.9592
   XY=             -6.2694   XZ=              0.0001   YZ=              0.0003

  Exact polarizability:     292.125     -93.721     290.032      -0.001       0.002      62.871
 Approx polarizability:     268.168     -35.979     254.556      -0.001       0.001      81.864

 ******    1 imaginary frequencies (negative Signs) ******

                      1                      2                      3
                      A                      A                      A
 Frequencies --   -132.6969                50.9577                68.0720
 Red. masses --      1.9529                 5.5787                 6.0715
 Frc consts  --      0.0203                 0.0085                 0.0166
 IR Inten    --     33.9232                 0.0116                 1.3337

                      4                      5                      6
                      A                      A                      A
 Frequencies --    111.5823               178.8378               191.9215
 Red. masses --      5.7524                 3.1142                 5.3698
 Frc consts  --      0.0422                 0.0587                 0.1165
 IR Inten    --      1.0213                20.1615                10.1154

                      7                      8                      9
                      A                      A                      A
 Frequencies --    251.0717               265.0825               289.4262
 Red. masses --      2.5840                 8.2756                 7.2031
 Frc consts  --      0.0960                 0.3426                 0.3555
 IR Inten    --     18.8964                 4.3350                 2.3086

                     10                     11                     12
                      A                      A                      A
 Frequencies --    324.3536               393.2763               429.9198
 Red. masses --      4.2738                 7.7130                 3.0027
 Frc consts  --      0.2649                 0.7029                 0.3270
 IR Inten    --      7.3946                 2.7822                 3.9428

                     13                     14                     15
                      A                      A                      A
 Frequencies --    441.1377               506.7227               516.9976
 Red. masses --      3.4432                 8.1324                 2.6060
 Frc consts  --      0.3948                 1.2303                 0.4104
 IR Inten    --      7.0725                10.1458                 3.7114

                     16                     17                     18
                      A                      A                      A
 Frequencies --    528.3566               545.4713               563.8213
 Red. masses --      6.5888                 7.8768                 3.8145
 Frc consts  --      1.0837                 1.3808                 0.7144
 IR Inten    --      2.4261                17.0498                 0.0002

                     19                     20                     21
                      A                      A                      A
 Frequencies --    578.3451               626.5321               656.9599
 Red. masses --      7.5041                 6.8078                 6.5822
 Frc consts  --      1.4788                 1.5745                 1.6738
 IR Inten    --     40.8149                 0.6511                 0.0009

                     22                     23                     24
                      A                      A                      A
 Frequencies --    713.2480               744.2207               750.1149
 Red. masses --      5.5578                 7.1409                 2.5346
 Frc consts  --      1.6658                 2.3303                 0.8403
 IR Inten    --     56.4115                43.0502                15.2809

                     25                     26                     27
                      A                      A                      A
 Frequencies --    756.2920               773.4209               778.0360
 Red. masses --      1.4175                 1.6000                 2.4305
 Frc consts  --      0.4777                 0.5639                 0.8668
 IR Inten    --     47.9941                53.0663                13.0537

                     28                     29                     30
                      A                      A                      A
 Frequencies --    827.3563               874.3842               879.2850
 Red. masses --      6.1429                 2.1321                 1.3752
 Frc consts  --      2.4775                 0.9604                 0.6265
 IR Inten    --     25.1888                16.1049                 0.8160

                     31                     32                     33
                      A                      A                      A
 Frequencies --    892.7721               962.3963               968.3615
 Red. masses --      6.0347                 1.3274                 1.3609
 Frc consts  --      2.8339                 0.7244                 0.7519
 IR Inten    --      1.6027                 0.0542                 1.6016

                     34                     35                     36
                      A                      A                      A
 Frequencies --    984.4379              1012.1090              1017.3018
 Red. masses --      5.2260                 1.3029                 1.3071
 Frc consts  --      2.9840                 0.7863                 0.7970
 IR Inten    --     19.8720                 0.0011                 0.3371

                     37                     38                     39
                      A                      A                      A
 Frequencies --   1040.8402              1058.2206              1101.5538
 Red. masses --      2.0624                 2.0701                 3.6083
 Frc consts  --      1.3164                 1.3658                 2.5797
 IR Inten    --     10.2542                13.0306                 0.8872

                     40                     41                     42
                      A                      A                      A
 Frequencies --   1137.3352              1158.2997              1164.2235
 Red. masses --      1.8548                 1.4052                 1.1259
 Frc consts  --      1.4136                 1.1108                 0.8991
 IR Inten    --     32.1151                 4.0925               107.4445

                     43                     44                     45
                      A                      A                      A
 Frequencies --   1180.8239              1191.1013              1224.2242
 Red. masses --      1.1557                 1.2125                 2.3856
 Frc consts  --      0.9494                 1.0135                 2.1065
 IR Inten    --     14.3678                19.2035                41.1851

                     46                     47                     48
                      A                      A                      A
 Frequencies --   1264.0901              1305.3381              1342.6818
 Red. masses --      2.2360                 1.7491                 2.6543
 Frc consts  --      2.1051                 1.7559                 2.8193
 IR Inten    --     87.0180               138.8113                16.5838

                     49                     50                     51
                      A                      A                      A
 Frequencies --   1384.3088              1398.0667              1409.7652
 Red. masses --      3.9575                 5.9615                 2.2016
 Frc consts  --      4.4682                 6.8653                 2.5779
 IR Inten    --    220.4665                34.8460                29.3342

                     52                     53                     54
                      A                      A                      A
 Frequencies --   1490.2414              1500.4939              1529.0293
 Red. masses --      3.0315                 3.4046                 4.3836
 Frc consts  --      3.9666                 4.5163                 6.0383
 IR Inten    --     22.2411              1044.0854              1481.4359

                     55                     56                     57
                      A                      A                      A
 Frequencies --   1537.5938              1590.9258              1654.5926
 Red. masses --      2.9263                 6.8169                 5.8843
 Frc consts  --      4.0762                10.1658                 9.4914
 IR Inten    --    155.4282                23.7571                74.3170

                     58                     59                     60
                      A                      A                      A
 Frequencies --   1679.3440              1710.1940              1753.6104
 Red. masses --      7.0674                 7.7825                10.4350
 Frc consts  --     11.7432                13.4110                18.9065
 IR Inten    --     19.4094                10.5543               466.6010

                     61                     62                     63
                      A                      A                      A
 Frequencies --   3182.1034              3191.1692              3212.1098
 Red. masses --      1.0887                 1.0877                 1.0881
 Frc consts  --      6.4952                 6.5259                 6.6143
 IR Inten    --      2.7087                12.6103                 1.1599

                     64                     65                     66
                      A                      A                      A
 Frequencies --   3213.9348              3222.2103              3229.6625
 Red. masses --      1.0945                 1.0909                 1.0971
 Frc consts  --      6.6613                 6.6734                 6.7425
 IR Inten    --     37.0342                 1.4519                19.2510

                     67                     68                     69
                      A                      A                      A
 Frequencies --   3232.0439              3242.7639              3972.3548
 Red. masses --      1.0949                 1.0992                 1.0782
 Frc consts  --      6.7390                 6.8102                10.0245
 IR Inten    --      5.7069                12.3501               142.5183

 - Thermochemistry -
 -------------------
 Temperature   298.150 Kelvin.  Pressure   1.00000 Atm.
 Atom     1 has atomic number  6 and mass  12.00000

 Molecular mass:   227.04049 amu.
 Principal axes and moments of inertia in atomic units:
                           1         2         3
     Eigenvalues --  1257.370676462.830787720.20145
           X           -0.70555   0.70866   0.00000
           Y            0.70866   0.70555  -0.00001
           Z            0.00001   0.00000   1.00000
 This molecule is an asymmetric top.
 Rotational symmetry number  1.
 Warning -- assumption of classical behavior for rotation
           may cause significant error
 Rotational temperatures (Kelvin)      0.06888     0.01340     0.01122
 Rotational constants (GHZ):           1.43533     0.27925     0.23377
    1 imaginary frequencies ignored.
 Zero-point vibrational energy     496198.0 (Joules/Mol)
                                  118.59418 (Kcal/Mol)
 Warning -- explicit consideration of  18 degrees of freedom as
           vibrations may cause significant error
 Vibrational temperatures:     73.32    97.94   160.54   257.31   276.13
          (Kelvin)            361.24   381.39   416.42   466.67   565.84
                              618.56   634.70   729.06   743.84   760.19
                              784.81   811.21   832.11   901.44   945.22
                             1026.20  1070.77  1079.25  1088.14  1112.78
                             1119.42  1190.38  1258.04  1265.09  1284.50
                             1384.67  1393.26  1416.39  1456.20  1463.67
                             1497.54  1522.54  1584.89  1636.37  1666.53
                             1675.06  1698.94  1713.73  1761.39  1818.74
                             1878.09  1931.82  1991.71  2011.51  2028.34
                             2144.12  2158.88  2199.93  2212.25  2288.99
                             2380.59  2416.20  2460.59  2523.05  4578.34
                             4591.38  4621.51  4624.14  4636.04  4646.76
                             4650.19  4665.61  5715.33

 Zero-point correction=                           0.188992 (Hartree/Particle)
 Thermal correction to Energy=                    0.200719
 Thermal correction to Enthalpy=                  0.201663
 Thermal correction to Gibbs Free Energy=         0.150473
 Sum of electronic and zero-point Energies=          -1028.600702
 Sum of electronic and thermal Energies=             -1028.588975
 Sum of electronic and thermal Enthalpies=           -1028.588031
 Sum of electronic and thermal Free Energies=        -1028.639220

                     E (Thermal)             CV                S
                      KCal/Mol        Cal/Mol-Kelvin    Cal/Mol-Kelvin
 Total                  125.953             47.557            107.738
 Electronic               0.000              0.000              0.000
 Translational            0.889              2.981             42.162
 Rotational               0.889              2.981             32.506
 Vibrational            124.175             41.596             33.069
 Vibration     1          0.595              1.977              4.780
 Vibration     2          0.598              1.969              4.208
 Vibration     3          0.607              1.940              3.241
 Vibration     4          0.629              1.868              2.341
 Vibration     5          0.634              1.851              2.209
 Vibration     6          0.663              1.761              1.723
 Vibration     7          0.671              1.737              1.628
 Vibration     8          0.686              1.693              1.477
 Vibration     9          0.709              1.627              1.288
 Vibration    10          0.760              1.485              0.988
 Vibration    11          0.791              1.405              0.859
 Vibration    12          0.801              1.380              0.823
 Vibration    13          0.862              1.235              0.642
 Vibration    14          0.872              1.212              0.617
 Vibration    15          0.883              1.187              0.591
 Vibration    16          0.901              1.150              0.554
 Vibration    17          0.920              1.110              0.516
 Vibration    18          0.935              1.078              0.488

 Optimization completed.
    -- Stationary point found.
 Normal termination of Gaussian 16 at Wed Oct 28 02:01:51 2020.
