 Gaussian 16, Revision C.01,
 Gaussian 16:  ES64L-G16RevC.01  3-Jul-2019

 ----------------------------------------------------------------------
 #p opt=addgic freq wb97xd/cc-pvdz nosymm int=ultrafine scrf=(solvent=C
 arbonTetraChloride)
 ----------------------------------------------------------------------

 ------------------------------------------------
 NM 2D-scan of HBT TD-WB97XD pVDZ in CTC Relaxed.
 ------------------------------------------------
 Symbolic Z-matrix:
 Charge =  0 Multiplicity = 1

 SCF Done:  E(RwB97XD) =  -1028.80796198     A.U. after   15 cycles
 SCF Done:  E(RwB97XD) =  -1028.81301835     A.U. after   14 cycles
 SCF Done:  E(RwB97XD) =  -1028.81192630     A.U. after   13 cycles
 SCF Done:  E(RwB97XD) =  -1028.81417214     A.U. after   12 cycles
 SCF Done:  E(RwB97XD) =  -1028.81424067     A.U. after   12 cycles
 SCF Done:  E(RwB97XD) =  -1028.81426842     A.U. after   11 cycles
 SCF Done:  E(RwB97XD) =  -1028.81412421     A.U. after   12 cycles
 SCF Done:  E(RwB97XD) =  -1028.81427060     A.U. after   12 cycles
 SCF Done:  E(RwB97XD) =  -1028.81428327     A.U. after   11 cycles
 Optimization completed.
    -- Stationary point found.
 Normal termination of Gaussian 16 at Tue Oct 27 21:55:59 2020.

 --------------------------------------------------------------------
 #P Geom=AllCheck Guess=TCheck SCRF=Check GenChk RwB97XD/CC-pVDZ Freq
 --------------------------------------------------------------------

 Structure from the checkpoint file:  "config_8_5.chk"
 ------------------------------------------------
 NM 2D-scan of HBT TD-WB97XD pVDZ in CTC Relaxed.
 ------------------------------------------------
 Charge =  0 Multiplicity = 1

                          Input orientation:
 ---------------------------------------------------------------------
 Center     Atomic      Atomic             Coordinates (Angstroms)
 Number     Number       Type             X           Y           Z
 ---------------------------------------------------------------------
      1          6           0        1.699911   -3.255347    0.000016
      2          6           0        1.004600   -2.046485   -0.000006
      3          6           0        1.690003   -0.826301   -0.000051
      4          6           0        3.085892   -0.780657   -0.000108
      5          6           0        3.776072   -1.985645   -0.000068
      6          6           0        3.090868   -3.209416   -0.000002
      7          1           0        1.171947   -4.209104    0.000045
      8          1           0        3.603938    0.178462   -0.000156
      9          1           0        4.866783   -1.979669   -0.000091
     10          1           0        3.654859   -4.142971    0.000020
     11          7           0        0.832822    0.251086   -0.000057
     12         16           0       -0.738207   -1.760373   -0.000055
     13          6           0       -1.401677    1.052442    0.000139
     14          6           0       -2.799777    0.871109    0.000035
     15          6           0       -0.830745    2.380095    0.000469
     16          6           0       -3.657838    1.952227    0.000016
     17          1           0       -3.204685   -0.144789   -0.000118
     18          6           0       -1.754677    3.467977    0.000148
     19          6           0       -3.116458    3.255644    0.000010
     20          1           0       -4.737472    1.802317   -0.000116
     21          1           0       -1.336523    4.475641    0.000068
     22          1           0       -3.791050    4.115032   -0.000118
     23          6           0       -0.456814   -0.033463    0.000031
     24          8           0        0.442259    2.581124    0.000113
     25          1           0        0.947891    1.418452   -0.000081
 ---------------------------------------------------------------------

 SCF Done:  E(RwB97XD) =  -1028.81428327     A.U. after    1 cycles

 Alpha  occ. eigenvalues --  -89.09838 -19.23352 -14.49292 -10.40708 -10.36471
 Alpha  occ. eigenvalues --  -10.36300 -10.35693 -10.33045 -10.32466 -10.32203
 Alpha  occ. eigenvalues --  -10.32116 -10.31456 -10.31263 -10.30890 -10.29425
 Alpha  occ. eigenvalues --  -10.29023  -8.11839  -6.06710  -6.06337  -6.05869
 Alpha  occ. eigenvalues --   -1.13583  -1.09997  -0.98044  -0.95372  -0.92663
 Alpha  occ. eigenvalues --   -0.89043  -0.86042  -0.83979  -0.82484  -0.75785
 Alpha  occ. eigenvalues --   -0.71927  -0.71037  -0.68853  -0.68392  -0.63888
 Alpha  occ. eigenvalues --   -0.60837  -0.59521  -0.57261  -0.55818  -0.55330
 Alpha  occ. eigenvalues --   -0.54667  -0.53579  -0.52495  -0.50955  -0.49998
 Alpha  occ. eigenvalues --   -0.49404  -0.47603  -0.46495  -0.45342  -0.45026
 Alpha  occ. eigenvalues --   -0.44263  -0.43144  -0.41852  -0.40551  -0.36503
 Alpha  occ. eigenvalues --   -0.33817  -0.33101  -0.31548  -0.27438
 Alpha virt. eigenvalues --   -0.00981   0.04120   0.06489   0.06982   0.08409
 Alpha virt. eigenvalues --    0.10965   0.13564   0.14830   0.16150   0.17655
 Alpha virt. eigenvalues --    0.19166   0.20558   0.21550   0.21960   0.22904

 Mulliken charges:
               1
     1  C    0.012242
     2  C   -0.239207
     3  C    0.276369
     4  C   -0.009602
     5  C    0.009875
     6  C    0.002174
     7  H    0.023564
     8  H    0.028682
     9  H    0.024994
    10  H    0.024893
    11  N   -0.237275
    12  S    0.176837
    13  C   -0.118318
    14  C   -0.010152
    15  C    0.113954
    16  C   -0.024634
    17  H    0.004753
    18  C   -0.010968
    19  C    0.024355
    20  H    0.004736
    21  H    0.006149
    22  H    0.014718
    23  C    0.073691
    24  O   -0.366612
    25  H    0.194782
 Sum of Mulliken charges =   0.00000

 Dipole moment (field-independent basis, Debye):
    X=              1.0697    Y=             -4.3161    Z=             -0.0003  Tot=              4.4467
 Quadrupole moment (field-independent basis, Debye-Ang):
   XX=            -82.6917   YY=            -92.5760   ZZ=           -104.0249
   XY=             -7.0766   XZ=              0.0005   YZ=             -0.0006

  Exact polarizability:     281.538     -76.940     271.194       0.000       0.003      62.954
 Approx polarizability:     265.603     -28.253     251.108       0.001       0.002      82.151

 ******    1 imaginary frequencies (negative Signs) ******

                      1                      2                      3
                      A                      A                      A
 Frequencies --   -919.2341                54.8651                67.4949
 Red. masses --      1.1920                 5.0186                 5.9997
 Frc consts  --      0.5934                 0.0089                 0.0161
 IR Inten    --   1073.5878                 0.1251                 1.7324

                      4                      5                      6
                      A                      A                      A
 Frequencies --    136.6035               151.4956               200.6274
 Red. masses --      5.6011                 5.1516                 6.0965
 Frc consts  --      0.0616                 0.0697                 0.1446
 IR Inten    --      0.5187                 0.7545                 0.1154

                      7                      8                      9
                      A                      A                      A
 Frequencies --    242.6762               275.6084               318.7686
 Red. masses --      6.1014                 7.1363                 5.2965
 Frc consts  --      0.2117                 0.3194                 0.3171
 IR Inten    --      0.4545                 2.5646                 0.6422

                     10                     11                     12
                      A                      A                      A
 Frequencies --    384.5765               418.4299               433.6588
 Red. masses --      6.0366                11.2273                 3.1565
 Frc consts  --      0.5260                 1.1582                 0.3497
 IR Inten    --      0.3782                 2.1379                 1.4033

                     13                     14                     15
                      A                      A                      A
 Frequencies --    456.5749               514.8704               538.7527
 Red. masses --      3.6329                 8.8259                 3.1948
 Frc consts  --      0.4462                 1.3785                 0.5464
 IR Inten    --      9.5628                 4.8369                 4.3005

                     16                     17                     18
                      A                      A                      A
 Frequencies --    553.9730               568.7334               580.8885
 Red. masses --      8.8055                 3.6455                 7.5063
 Frc consts  --      1.5921                 0.6947                 1.4923
 IR Inten    --      6.0837                 0.1225                10.6672

                     19                     20                     21
                      A                      A                      A
 Frequencies --    615.1098               648.3413               694.4892
 Red. masses --      7.2291                 6.5279                 6.3472
 Frc consts  --      1.6115                 1.6167                 1.8037
 IR Inten    --     17.3806                 0.0023                11.8012

                     22                     23                     24
                      A                      A                      A
 Frequencies --    717.7070               753.1046               766.4311
 Red. masses --      6.5571                 2.3982                 1.5652
 Frc consts  --      1.9900                 0.8014                 0.5417
 IR Inten    --     12.3124                15.2793                40.1340

                     25                     26                     27
                      A                      A                      A
 Frequencies --    777.2552               779.5174               780.9121
 Red. masses --      2.3274                 7.5686                 1.6630
 Frc consts  --      0.8284                 2.7097                 0.5975
 IR Inten    --     27.5166                29.0640                41.8611

                     28                     29                     30
                      A                      A                      A
 Frequencies --    851.4169               879.6514               884.9946
 Red. masses --      6.1926                 1.7068                 1.3919
 Frc consts  --      2.6449                 0.7781                 0.6423
 IR Inten    --     16.8643                 8.0462                 0.3345

                     31                     32                     33
                      A                      A                      A
 Frequencies --    936.0115               968.4092               974.3947
 Red. masses --      6.9390                 1.3384                 1.3593
 Frc consts  --      3.5819                 0.7395                 0.7604
 IR Inten    --     12.6316                 0.6485                 1.1949

                     34                     35                     36
                      A                      A                      A
 Frequencies --   1012.8121              1016.3395              1016.4943
 Red. masses --      1.3030                 1.3048                 7.1698
 Frc consts  --      0.7875                 0.7941                 4.3649
 IR Inten    --      0.2468                 0.0026                 8.5505

                     37                     38                     39
                      A                      A                      A
 Frequencies --   1053.9674              1055.2483              1102.1378
 Red. masses --      2.0275                 1.9964                 3.7589
 Frc consts  --      1.3270                 1.3098                 2.6902
 IR Inten    --      2.8564                13.5610                 4.5599

                     40                     41                     42
                      A                      A                      A
 Frequencies --   1153.5270              1157.0841              1159.5214
 Red. masses --      1.4316                 1.2956                 1.0616
 Frc consts  --      1.1223                 1.0220                 0.8410
 IR Inten    --     12.1843                 0.7357                68.6732

                     43                     44                     45
                      A                      A                      A
 Frequencies --   1174.9838              1185.4111              1256.4702
 Red. masses --      1.0984                 1.1726                 1.8750
 Frc consts  --      0.8935                 0.9709                 1.7441
 IR Inten    --     89.7570                 0.4241                50.3890

                     46                     47                     48
                      A                      A                      A
 Frequencies --   1289.6260              1325.5537              1365.3071
 Red. masses --      1.5363                 3.0684                 4.0090
 Frc consts  --      1.5054                 3.1765                 4.4030
 IR Inten    --     23.9514               339.3748                 9.5128

                     49                     50                     51
                      A                      A                      A
 Frequencies --   1381.8956              1383.7755              1406.6156
 Red. masses --      5.0159                 6.3677                 2.4567
 Frc consts  --      5.6435                 7.1840                 2.8638
 IR Inten    --     29.2540                 4.1608                11.9710

                     52                     53                     54
                      A                      A                      A
 Frequencies --   1494.3099              1504.5206              1523.8346
 Red. masses --      2.7848                 2.8386                 3.5413
 Frc consts  --      3.6638                 3.7857                 4.8449
 IR Inten    --     19.5695                28.6205                54.1315

                     55                     56                     57
                      A                      A                      A
 Frequencies --   1563.8408              1588.0998              1603.7436
 Red. masses --      7.1281                 4.8130                 6.1463
 Frc consts  --     10.2709                 7.1520                 9.3139
 IR Inten    --   1767.4935               201.9335                23.4252

                     58                     59                     60
                      A                      A                      A
 Frequencies --   1661.4135              1682.6475              1710.4150
 Red. masses --      7.0236                 6.7419                 6.5932
 Frc consts  --     11.4226                11.2465                11.3644
 IR Inten    --      3.6814                 5.5030               170.8217

                     61                     62                     63
                      A                      A                      A
 Frequencies --   1994.5209              3184.3977              3197.1113
 Red. masses --      1.1151                 1.0897                 1.0883
 Frc consts  --      2.6136                 6.5103                 6.5543
 IR Inten    --    247.5516                 4.2296                10.9463

                     64                     65                     66
                      A                      A                      A
 Frequencies --   3215.6704              3223.2710              3226.6920
 Red. masses --      1.0866                 1.0940                 1.0910
 Frc consts  --      6.6198                 6.6968                 6.6923
 IR Inten    --      1.9517                16.7961                 3.3207

                     67                     68                     69
                      A                      A                      A
 Frequencies --   3233.0052              3237.3182              3242.9259
 Red. masses --      1.0976                 1.0961                 1.0996
 Frc consts  --      6.7593                 6.7681                 6.8132
 IR Inten    --     19.5485                 7.8878                 9.9429

 - Thermochemistry -
 -------------------
 Temperature   298.150 Kelvin.  Pressure   1.00000 Atm.
 Atom     1 has atomic number  6 and mass  12.00000

 Molecular mass:   227.04049 amu.
 Principal axes and moments of inertia in atomic units:
                           1         2         3
     Eigenvalues --  1306.741796247.881117554.62288
           X           -0.70610   0.70811  -0.00000
           Y            0.70811   0.70610  -0.00003
           Z            0.00002   0.00003   1.00000
 This molecule is an asymmetric top.
 Rotational symmetry number  1.
 Warning -- assumption of classical behavior for rotation
           may cause significant error
 Rotational temperatures (Kelvin)      0.06628     0.01386     0.01147
 Rotational constants (GHZ):           1.38110     0.28886     0.23889
    1 imaginary frequencies ignored.
 Zero-point vibrational energy     487543.2 (Joules/Mol)
                                  116.52561 (Kcal/Mol)
 Warning -- explicit consideration of  18 degrees of freedom as
           vibrations may cause significant error
 Vibrational temperatures:     78.94    97.11   196.54   217.97   288.66
          (Kelvin)            349.16   396.54   458.64   553.32   602.03
                              623.94   656.91   740.78   775.15   797.04
                              818.28   835.77   885.01   932.82   999.22
                             1032.62  1083.55  1102.72  1118.30  1121.55
                             1123.56  1225.00  1265.62  1273.31  1346.71
                             1393.32  1401.94  1457.21  1462.29  1462.51
                             1516.42  1518.27  1585.73  1659.67  1664.79
                             1668.29  1690.54  1705.54  1807.78  1855.48
                             1907.18  1964.37  1988.24  1990.94  2023.81
                             2149.98  2164.67  2192.46  2250.02  2284.92
                             2307.43  2390.40  2420.95  2460.91  2869.67
                             4581.64  4599.93  4626.63  4637.57  4642.49
                             4651.57  4657.78  4665.85

 Zero-point correction=                           0.185695 (Hartree/Particle)
 Thermal correction to Energy=                    0.197100
 Thermal correction to Enthalpy=                  0.198044
 Thermal correction to Gibbs Free Energy=         0.147505
 Sum of electronic and zero-point Energies=          -1028.628588
 Sum of electronic and thermal Energies=             -1028.617183
 Sum of electronic and thermal Enthalpies=           -1028.616239
 Sum of electronic and thermal Free Energies=        -1028.666779

                     E (Thermal)             CV                S
                      KCal/Mol        Cal/Mol-Kelvin    Cal/Mol-Kelvin
 Total                  123.682             46.574            106.369
 Electronic               0.000              0.000              0.000
 Translational            0.889              2.981             42.162
 Rotational               0.889              2.981             32.489
 Vibrational            121.905             40.612             31.718
 Vibration     1          0.596              1.976              4.634
 Vibration     2          0.598              1.970              4.225
 Vibration     3          0.614              1.917              2.851
 Vibration     4          0.619              1.901              2.653
 Vibration     5          0.638              1.839              2.127
 Vibration     6          0.659              1.775              1.783
 Vibration     7          0.677              1.718              1.561
 Vibration     8          0.705              1.638              1.316
 Vibration     9          0.754              1.503              1.021
 Vibration    10          0.781              1.430              0.897
 Vibration    11          0.794              1.397              0.847
 Vibration    12          0.815              1.346              0.776
 Vibration    13          0.870              1.217              0.622
 Vibration    14          0.894              1.164              0.568
 Vibration    15          0.909              1.131              0.536
 Vibration    16          0.925              1.099              0.507
 Vibration    17          0.938              1.073              0.484
 Vibration    18          0.975              1.000              0.424

 Optimization completed.
    -- Stationary point found.
 Normal termination of Gaussian 16 at Tue Oct 27 22:02:04 2020.
