 Gaussian 16, Revision C.01,
 Gaussian 16:  ES64L-G16RevC.01  3-Jul-2019

 ----------------------------------------------------------------------
 #p opt=addgic freq wb97xd/cc-pvdz nosymm int=ultrafine scrf=(solvent=C
 arbonTetraChloride)
 ----------------------------------------------------------------------

 ------------------------------------------------
 NM 2D-scan of HBT TD-WB97XD pVDZ in CTC Relaxed.
 ------------------------------------------------
 Symbolic Z-matrix:
 Charge =  0 Multiplicity = 1

 SCF Done:  E(RwB97XD) =  -1028.80926935     A.U. after   15 cycles
 SCF Done:  E(RwB97XD) =  -1028.81242721     A.U. after   14 cycles
 SCF Done:  E(RwB97XD) =  -1028.81088033     A.U. after   13 cycles
 SCF Done:  E(RwB97XD) =  -1028.81548771     A.U. after   12 cycles
 SCF Done:  E(RwB97XD) =  -1028.81587423     A.U. after   12 cycles
 SCF Done:  E(RwB97XD) =  -1028.81599036     A.U. after   12 cycles
 SCF Done:  E(RwB97XD) =  -1028.81598698     A.U. after   11 cycles
 SCF Done:  E(RwB97XD) =  -1028.81600907     A.U. after   11 cycles
 SCF Done:  E(RwB97XD) =  -1028.81601918     A.U. after   10 cycles
 Optimization completed.
    -- Stationary point found.
 Normal termination of Gaussian 16 at Tue Oct 27 23:25:38 2020.

 --------------------------------------------------------------------
 #P Geom=AllCheck Guess=TCheck SCRF=Check GenChk RwB97XD/CC-pVDZ Freq
 --------------------------------------------------------------------

 Structure from the checkpoint file:  "config_7_11.chk"
 ------------------------------------------------
 NM 2D-scan of HBT TD-WB97XD pVDZ in CTC Relaxed.
 ------------------------------------------------
 Charge =  0 Multiplicity = 1

                          Input orientation:
 ---------------------------------------------------------------------
 Center     Atomic      Atomic             Coordinates (Angstroms)
 Number     Number       Type             X           Y           Z
 ---------------------------------------------------------------------
      1          6           0        1.613160   -3.246065   -0.000036
      2          6           0        1.006555   -1.994062   -0.000025
      3          6           0        1.743652   -0.802294   -0.000012
      4          6           0        3.142394   -0.858822   -0.000005
      5          6           0        3.752085   -2.111346   -0.000015
      6          6           0        3.000237   -3.294780   -0.000031
      7          1           0        1.014266   -4.157005   -0.000045
      8          1           0        3.733611    0.057213    0.000007
      9          1           0        4.841366   -2.170642   -0.000010
     10          1           0        3.506712   -4.260646   -0.000038
     11          7           0        0.915396    0.313835   -0.000004
     12         16           0       -0.712615   -1.659018   -0.000013
     13          6           0       -1.362248    1.080044   -0.000000
     14          6           0       -2.737917    0.804469    0.000017
     15          6           0       -0.857316    2.417536   -0.000018
     16          6           0       -3.662110    1.831456    0.000036
     17          1           0       -3.077769   -0.234689    0.000022
     18          6           0       -1.837582    3.452610    0.000026
     19          6           0       -3.191733    3.157191    0.000045
     20          1           0       -4.731096    1.618986    0.000054
     21          1           0       -1.490895    4.487152    0.000042
     22          1           0       -3.912553    3.978155    0.000067
     23          6           0       -0.374435    0.035494   -0.000009
     24          8           0        0.422365    2.634482    0.000012
     25          1           0        0.949218    1.558737    0.000031
 ---------------------------------------------------------------------

 SCF Done:  E(RwB97XD) =  -1028.81601918     A.U. after    1 cycles

 Alpha  occ. eigenvalues --  -89.09372 -19.24270 -14.48819 -10.40160 -10.36613
 Alpha  occ. eigenvalues --  -10.36215 -10.35319 -10.32756 -10.32445 -10.32079
 Alpha  occ. eigenvalues --  -10.31982 -10.31522 -10.31113 -10.31078 -10.29622
 Alpha  occ. eigenvalues --  -10.29423  -8.11481  -6.06333  -6.05966  -6.05522
 Alpha  occ. eigenvalues --   -1.13877  -1.09778  -0.97868  -0.95762  -0.92647
 Alpha  occ. eigenvalues --   -0.88904  -0.86045  -0.83932  -0.82809  -0.75706
 Alpha  occ. eigenvalues --   -0.71708  -0.71043  -0.68932  -0.68191  -0.63664
 Alpha  occ. eigenvalues --   -0.60898  -0.59443  -0.57573  -0.55966  -0.55080
 Alpha  occ. eigenvalues --   -0.54614  -0.53580  -0.52607  -0.50979  -0.49780
 Alpha  occ. eigenvalues --   -0.49621  -0.47200  -0.46441  -0.45271  -0.45124
 Alpha  occ. eigenvalues --   -0.44292  -0.43154  -0.42098  -0.40452  -0.36417
 Alpha  occ. eigenvalues --   -0.34648  -0.32840  -0.31552  -0.27926
 Alpha virt. eigenvalues --   -0.00814   0.04315   0.06496   0.07378   0.08089
 Alpha virt. eigenvalues --    0.11073   0.14562   0.14930   0.16634   0.17776
 Alpha virt. eigenvalues --    0.19098   0.20707   0.21644   0.22110   0.22857

 Mulliken charges:
               1
     1  C    0.017630
     2  C   -0.230204
     3  C    0.265150
     4  C   -0.012680
     5  C    0.006533
     6  C    0.004224
     7  H    0.021546
     8  H    0.026577
     9  H    0.024144
    10  H    0.024082
    11  N   -0.287513
    12  S    0.173417
    13  C   -0.089673
    14  C   -0.020641
    15  C    0.110965
    16  C   -0.019398
    17  H    0.010871
    18  C   -0.015247
    19  C    0.023018
    20  H    0.005512
    21  H    0.008655
    22  H    0.016015
    23  C    0.075819
    24  O   -0.342306
    25  H    0.203504
 Sum of Mulliken charges =  -0.00000

 Dipole moment (field-independent basis, Debye):
    X=              0.7405    Y=             -4.0920    Z=              0.0000  Tot=              4.1584
 Quadrupole moment (field-independent basis, Debye-Ang):
   XX=            -82.6110   YY=            -92.2490   ZZ=           -103.9525
   XY=             -7.1255   XZ=             -0.0001   YZ=              0.0002

  Exact polarizability:     278.732     -74.151     264.348      -0.001       0.002      62.850
 Approx polarizability:     264.071     -26.597     247.311      -0.001       0.001      82.116

 ******    1 imaginary frequencies (negative Signs) ******

                      1                      2                      3
                      A                      A                      A
 Frequencies --  -1003.8581                45.4518                65.2291
 Red. masses --      1.1239                 4.8981                 6.3033
 Frc consts  --      0.6673                 0.0060                 0.0158
 IR Inten    --   1702.1868                 0.0246                 1.4676

                      4                      5                      6
                      A                      A                      A
 Frequencies --    141.7580               152.3164               200.0242
 Red. masses --      5.6126                 5.1444                 6.2607
 Frc consts  --      0.0665                 0.0703                 0.1476
 IR Inten    --      1.2807                 0.7037                 0.2064

                      7                      8                      9
                      A                      A                      A
 Frequencies --    243.0874               280.6279               324.2678
 Red. masses --      5.8758                 7.1340                 5.2471
 Frc consts  --      0.2046                 0.3310                 0.3251
 IR Inten    --      0.2965                 4.7078                 0.3279

                     10                     11                     12
                      A                      A                      A
 Frequencies --    384.8715               426.9216               433.6267
 Red. masses --      6.1163                11.5970                 3.1138
 Frc consts  --      0.5338                 1.2453                 0.3450
 IR Inten    --      5.3208                 2.7852                 1.4982

                     13                     14                     15
                      A                      A                      A
 Frequencies --    458.4145               517.1792               538.2149
 Red. masses --      3.5851                 8.7486                 3.2863
 Frc consts  --      0.4439                 1.3787                 0.5609
 IR Inten    --      9.0582                 4.5541                 3.8054

                     16                     17                     18
                      A                      A                      A
 Frequencies --    559.4803               572.0964               579.0580
 Red. masses --      8.5203                 3.6741                 7.6931
 Frc consts  --      1.5713                 0.7085                 1.5198
 IR Inten    --      8.1655                 0.1103                 4.5024

                     19                     20                     21
                      A                      A                      A
 Frequencies --    628.8622               648.9011               694.0587
 Red. masses --      7.3846                 6.5007                 6.4263
 Frc consts  --      1.7206                 1.6128                 1.8239
 IR Inten    --     46.5956                 0.0008                 0.9791

                     22                     23                     24
                      A                      A                      A
 Frequencies --    731.5989               754.4562               767.7233
 Red. masses --      6.5584                 2.2542                 1.6579
 Frc consts  --      2.0682                 0.7560                 0.5757
 IR Inten    --      4.5096                19.9670                33.6433

                     25                     26                     27
                      A                      A                      A
 Frequencies --    776.3405               777.9105               781.1939
 Red. masses --      2.2124                 8.5566                 1.7509
 Frc consts  --      0.7856                 3.0508                 0.6295
 IR Inten    --     27.3006                27.6976                46.5250

                     28                     29                     30
                      A                      A                      A
 Frequencies --    856.7329               879.2466               885.0160
 Red. masses --      6.2344                 1.6506                 1.3934
 Frc consts  --      2.6961                 0.7518                 0.6430
 IR Inten    --     16.5272                 7.0618                 0.4679

                     31                     32                     33
                      A                      A                      A
 Frequencies --    931.3002               966.1832               973.8584
 Red. masses --      7.2099                 1.3492                 1.3631
 Frc consts  --      3.6843                 0.7421                 0.7617
 IR Inten    --      6.9384                 0.7963                 1.3658

                     34                     35                     36
                      A                      A                      A
 Frequencies --   1011.3774              1015.9367              1016.0006
 Red. masses --      1.3040                 1.3058                 7.4469
 Frc consts  --      0.7859                 0.7941                 4.5291
 IR Inten    --      0.2981                 0.0020                13.0275

                     37                     38                     39
                      A                      A                      A
 Frequencies --   1054.1244              1060.6593              1105.3956
 Red. masses --      2.0210                 1.9164                 3.5129
 Frc consts  --      1.3231                 1.2702                 2.5290
 IR Inten    --      7.8251                 8.7123                 3.4492

                     40                     41                     42
                      A                      A                      A
 Frequencies --   1155.9775              1159.4046              1175.4120
 Red. masses --      1.4341                 1.3624                 1.1008
 Frc consts  --      1.1291                 1.0790                 0.8961
 IR Inten    --     11.5667                 0.5411                90.6477

                     43                     44                     45
                      A                      A                      A
 Frequencies --   1180.0770              1185.4714              1258.8117
 Red. masses --      1.0558                 1.2020                 1.9560
 Frc consts  --      0.8663                 0.9952                 1.8262
 IR Inten    --     69.5226                 0.6167                55.4208

                     46                     47                     48
                      A                      A                      A
 Frequencies --   1290.2027              1323.6714              1347.5041
 Red. masses --      1.5314                 3.5971                 2.9237
 Frc consts  --      1.5020                 3.7133                 3.1278
 IR Inten    --      6.4797               353.0132                12.0745

                     49                     50                     51
                      A                      A                      A
 Frequencies --   1380.8098              1392.8160              1397.1415
 Red. masses --      6.2140                 4.7645                 3.0910
 Frc consts  --      6.9805                 5.4457                 3.5550
 IR Inten    --     27.8802                16.0064                 5.1353

                     52                     53                     54
                      A                      A                      A
 Frequencies --   1489.9612              1500.6334              1515.0617
 Red. masses --      2.7905                 2.8386                 3.2796
 Frc consts  --      3.6499                 3.7662                 4.4354
 IR Inten    --     34.8943                17.3892                31.2039

                     55                     56                     57
                      A                      A                      A
 Frequencies --   1566.4461              1579.6009              1615.9861
 Red. masses --      6.3407                 4.9002                 5.9883
 Frc consts  --      9.1669                 7.2037                 9.2136
 IR Inten    --   1300.0429               196.1991                99.8264

                     58                     59                     60
                      A                      A                      A
 Frequencies --   1659.9640              1680.9812              1707.2262
 Red. masses --      6.9669                 6.7813                 6.8532
 Frc consts  --     11.3107                11.2899                11.7687
 IR Inten    --      3.4641                 3.0731               198.5188

                     61                     62                     63
                      A                      A                      A
 Frequencies --   1919.9028              3192.9916              3201.2318
 Red. masses --      1.0973                 1.0890                 1.0888
 Frc consts  --      2.3831                 6.5414                 6.5738
 IR Inten    --    146.4142                 3.6257                10.1092

                     64                     65                     66
                      A                      A                      A
 Frequencies --   3214.9632              3225.1807              3225.7039
 Red. masses --      1.0863                 1.0909                 1.0938
 Frc consts  --      6.6152                 6.6854                 6.7055
 IR Inten    --      1.7027                 3.0460                17.9130

                     67                     68                     69
                      A                      A                      A
 Frequencies --   3235.3702              3236.4517              3241.4364
 Red. masses --      1.0960                 1.0978                 1.0997
 Frc consts  --      6.7595                 6.7752                 6.8078
 IR Inten    --      7.2257                17.8052                11.9149

 - Thermochemistry -
 -------------------
 Temperature   298.150 Kelvin.  Pressure   1.00000 Atm.
 Atom     1 has atomic number  6 and mass  12.00000

 Molecular mass:   227.04049 amu.
 Principal axes and moments of inertia in atomic units:
                           1         2         3
     Eigenvalues --  1280.307016240.023547520.33055
           X            0.70782   0.70640   0.00000
           Y           -0.70640   0.70782  -0.00001
           Z           -0.00001   0.00000   1.00000
 This molecule is an asymmetric top.
 Rotational symmetry number  1.
 Warning -- assumption of classical behavior for rotation
           may cause significant error
 Rotational temperatures (Kelvin)      0.06765     0.01388     0.01152
 Rotational constants (GHZ):           1.40962     0.28922     0.23998
    1 imaginary frequencies ignored.
 Zero-point vibrational energy     487453.7 (Joules/Mol)
                                  116.50423 (Kcal/Mol)
 Warning -- explicit consideration of  17 degrees of freedom as
           vibrations may cause significant error
 Vibrational temperatures:     65.39    93.85   203.96   219.15   287.79
          (Kelvin)            349.75   403.76   466.55   553.74   614.24
                              623.89   659.56   744.11   774.37   804.97
                              823.12   833.14   904.79   933.62   998.60
                             1052.61  1085.49  1104.58  1116.98  1119.24
                             1123.96  1232.65  1265.04  1273.34  1339.93
                             1390.12  1401.16  1455.15  1461.71  1461.80
                             1516.65  1526.05  1590.42  1663.19  1668.12
                             1691.16  1697.87  1705.63  1811.15  1856.31
                             1904.47  1938.76  1986.68  2003.95  2010.17
                             2143.72  2159.08  2179.84  2253.77  2272.69
                             2325.04  2388.32  2418.56  2456.32  2762.31
                             4594.00  4605.86  4625.61  4640.32  4641.07
                             4654.98  4656.53  4663.70

 Zero-point correction=                           0.185661 (Hartree/Particle)
 Thermal correction to Energy=                    0.197038
 Thermal correction to Enthalpy=                  0.197982
 Thermal correction to Gibbs Free Energy=         0.147356
 Sum of electronic and zero-point Energies=          -1028.630358
 Sum of electronic and thermal Energies=             -1028.618982
 Sum of electronic and thermal Enthalpies=           -1028.618037
 Sum of electronic and thermal Free Energies=        -1028.668663

                     E (Thermal)             CV                S
                      KCal/Mol        Cal/Mol-Kelvin    Cal/Mol-Kelvin
 Total                  123.643             46.448            106.550
 Electronic               0.000              0.000              0.000
 Translational            0.889              2.981             42.162
 Rotational               0.889              2.981             32.463
 Vibrational            121.866             40.486             31.925
 Vibration     1          0.595              1.979              5.006
 Vibration     2          0.597              1.971              4.292
 Vibration     3          0.615              1.911              2.780
 Vibration     4          0.619              1.900              2.643
 Vibration     5          0.638              1.840              2.133
 Vibration     6          0.659              1.774              1.780
 Vibration     7          0.680              1.709              1.530
 Vibration     8          0.709              1.627              1.288
 Vibration     9          0.754              1.502              1.020
 Vibration    10          0.789              1.412              0.869
 Vibration    11          0.794              1.397              0.847
 Vibration    12          0.816              1.342              0.771
 Vibration    13          0.872              1.212              0.617
 Vibration    14          0.893              1.166              0.569
 Vibration    15          0.915              1.119              0.525
 Vibration    16          0.928              1.092              0.500
 Vibration    17          0.936              1.077              0.487

 Optimization completed.
    -- Stationary point found.
 Normal termination of Gaussian 16 at Tue Oct 27 23:32:02 2020.
