 Gaussian 16, Revision C.01,
 Gaussian 16:  ES64L-G16RevC.01  3-Jul-2019

 ----------------------------------------------------------------------
 #p opt=addgic freq wb97xd/cc-pvdz nosymm int=ultrafine scrf=(solvent=C
 arbonTetraChloride)
 ----------------------------------------------------------------------

 ------------------------------------------------
 NM 2D-scan of HBT TD-WB97XD pVDZ in CTC Relaxed.
 ------------------------------------------------
 Symbolic Z-matrix:
 Charge =  0 Multiplicity = 1

 SCF Done:  E(RwB97XD) =  -1028.76025986     A.U. after   16 cycles
 SCF Done:  E(RwB97XD) =  -1028.80287841     A.U. after   13 cycles
 SCF Done:  E(RwB97XD) =  -1028.80929107     A.U. after   13 cycles
 SCF Done:  E(RwB97XD) =  -1028.80984682     A.U. after   11 cycles
 SCF Done:  E(RwB97XD) =  -1028.80990698     A.U. after   11 cycles
 SCF Done:  E(RwB97XD) =  -1028.80991275     A.U. after    9 cycles
 Optimization completed.
    -- Stationary point found.
 Normal termination of Gaussian 16 at Tue Oct 27 23:21:16 2020.

 --------------------------------------------------------------------
 #P Geom=AllCheck Guess=TCheck SCRF=Check GenChk RwB97XD/CC-pVDZ Freq
 --------------------------------------------------------------------

 Structure from the checkpoint file:  "config_10_12.chk"
 ------------------------------------------------
 NM 2D-scan of HBT TD-WB97XD pVDZ in CTC Relaxed.
 ------------------------------------------------
 Charge =  0 Multiplicity = 1

                          Input orientation:
 ---------------------------------------------------------------------
 Center     Atomic      Atomic             Coordinates (Angstroms)
 Number     Number       Type             X           Y           Z
 ---------------------------------------------------------------------
      1          6           0        1.613929   -3.273646   -0.000022
      2          6           0        1.001826   -2.025081   -0.000014
      3          6           0        1.754749   -0.853466   -0.000013
      4          6           0        3.148980   -0.891899   -0.000019
      5          6           0        3.761203   -2.142885   -0.000026
      6          6           0        3.005079   -3.320742   -0.000028
      7          1           0        1.020693   -4.188103   -0.000024
      8          1           0        3.733756    0.028226   -0.000019
      9          1           0        4.850273   -2.201794   -0.000030
     10          1           0        3.509022   -4.287723   -0.000034
     11          7           0        0.931178    0.258127   -0.000010
     12         16           0       -0.723125   -1.650833   -0.000005
     13          6           0       -1.351727    1.099689    0.000012
     14          6           0       -2.743563    0.813810    0.000011
     15          6           0       -0.857100    2.474440    0.000020
     16          6           0       -3.677483    1.816946    0.000024
     17          1           0       -3.074353   -0.229012    0.000001
     18          6           0       -1.901424    3.489124    0.000045
     19          6           0       -3.233425    3.169012    0.000041
     20          1           0       -4.742514    1.584880    0.000023
     21          1           0       -1.571356    4.529741    0.000066
     22          1           0       -3.977492    3.969807    0.000055
     23          6           0       -0.395890    0.060275    0.000000
     24          8           0        0.364048    2.746326    0.000050
     25          1           0        1.280324    1.208955   -0.000015
 ---------------------------------------------------------------------

 SCF Done:  E(RwB97XD) =  -1028.80991275     A.U. after    1 cycles

 Alpha  occ. eigenvalues --  -89.09917 -19.21442 -14.51887 -10.41381 -10.37149
 Alpha  occ. eigenvalues --  -10.36093 -10.35884 -10.33258 -10.32989 -10.32556
 Alpha  occ. eigenvalues --  -10.32281 -10.31163 -10.30705 -10.30466 -10.29128
 Alpha  occ. eigenvalues --  -10.28601  -8.11965  -6.06847  -6.06462  -6.05972
 Alpha  occ. eigenvalues --   -1.13092  -1.09940  -0.98593  -0.95359  -0.93247
 Alpha  occ. eigenvalues --   -0.89237  -0.86639  -0.83884  -0.81812  -0.75608
 Alpha  occ. eigenvalues --   -0.73395  -0.71984  -0.69186  -0.67935  -0.64732
 Alpha  occ. eigenvalues --   -0.60914  -0.59752  -0.56704  -0.55951  -0.55894
 Alpha  occ. eigenvalues --   -0.55021  -0.53752  -0.53006  -0.50287  -0.49576
 Alpha  occ. eigenvalues --   -0.49025  -0.48282  -0.46747  -0.45618  -0.44758
 Alpha  occ. eigenvalues --   -0.44522  -0.42975  -0.41858  -0.40433  -0.36846
 Alpha  occ. eigenvalues --   -0.33558  -0.31691  -0.31645  -0.26315
 Alpha virt. eigenvalues --   -0.01251   0.03797   0.05928   0.06876   0.09347
 Alpha virt. eigenvalues --    0.11219   0.13742   0.14704   0.16084   0.17254
 Alpha virt. eigenvalues --    0.18575   0.19951   0.21055   0.21590   0.23054

 Mulliken charges:
               1
     1  C    0.015425
     2  C   -0.239853
     3  C    0.245420
     4  C   -0.010384
     5  C    0.010579
     6  C    0.003450
     7  H    0.024437
     8  H    0.030742
     9  H    0.027163
    10  H    0.025923
    11  N   -0.118625
    12  S    0.181756
    13  C   -0.107786
    14  C   -0.012926
    15  C    0.106461
    16  C   -0.032223
    17  H    0.007565
    18  C   -0.029324
    19  C    0.027494
    20  H    0.002322
    21  H    0.001878
    22  H    0.013718
    23  C    0.082553
    24  O   -0.383801
    25  H    0.128038
 Sum of Mulliken charges =  -0.00000

 Dipole moment (field-independent basis, Debye):
    X=              1.8594    Y=             -5.2508    Z=             -0.0001  Tot=              5.5703
 Quadrupole moment (field-independent basis, Debye-Ang):
   XX=            -81.7643   YY=            -95.3955   ZZ=           -103.9986
   XY=             -6.7390   XZ=             -0.0002   YZ=             -0.0001

  Exact polarizability:     287.898     -88.022     285.836      -0.001       0.002      62.895
 Approx polarizability:     266.412     -33.371     255.227      -0.001       0.002      81.922

                      1                      2                      3
                      A                      A                      A
 Frequencies --     54.5541                63.2819               107.8893
 Red. masses --      4.6032                 6.4100                 5.6833
 Frc consts  --      0.0081                 0.0151                 0.0390
 IR Inten    --      0.0385                 2.5324                 1.3088

                      4                      5                      6
                      A                      A                      A
 Frequencies --    129.5371               195.5348               229.5243
 Red. masses --      5.4122                 6.1389                 5.9028
 Frc consts  --      0.0535                 0.1383                 0.1832
 IR Inten    --      1.2030                 0.0063                 0.8200

                      7                      8                      9
                      A                      A                      A
 Frequencies --    267.4331               306.5144               307.7843
 Red. masses --      7.6498                 6.7170                 5.3086
 Frc consts  --      0.3224                 0.3718                 0.2963
 IR Inten    --      5.6563                 3.5248                 1.2449

                     10                     11                     12
                      A                      A                      A
 Frequencies --    398.2567               427.7290               446.2386
 Red. masses --      9.0243                 3.2659                 3.5376
 Frc consts  --      0.8433                 0.3520                 0.4150
 IR Inten    --      4.3122                 0.2521                10.1415

                     13                     14                     15
                      A                      A                      A
 Frequencies --    506.8626               524.8979               535.9657
 Red. masses --      8.2486                 2.7264                 7.8979
 Frc consts  --      1.2486                 0.4426                 1.3367
 IR Inten    --      9.9696                 6.7486                 8.6026

                     16                     17                     18
                      A                      A                      A
 Frequencies --    551.0294               561.8776               582.6520
 Red. masses --      6.7258                 3.8135                 7.1744
 Frc consts  --      1.2032                 0.7093                 1.4350
 IR Inten    --      4.6705                 0.0175                36.6970

                     19                     20                     21
                      A                      A                      A
 Frequencies --    627.9956               655.9684               712.6702
 Red. masses --      3.9325                 5.9175                 5.9017
 Frc consts  --      0.9138                 1.5002                 1.7661
 IR Inten    --      4.2123                 5.1281                47.5836

                     22                     23                     24
                      A                      A                      A
 Frequencies --    716.5152               740.5704               752.0741
 Red. masses --      1.2526                 7.8254                 2.5847
 Frc consts  --      0.3789                 2.5287                 0.8614
 IR Inten    --     56.6650                58.9148                21.6274

                     25                     26                     27
                      A                      A                      A
 Frequencies --    761.0297               775.6068               783.2697
 Red. masses --      1.4065                 1.5640                 2.3636
 Frc consts  --      0.4799                 0.5543                 0.8544
 IR Inten    --     38.0495                45.1244                34.8799

                     28                     29                     30
                      A                      A                      A
 Frequencies --    834.7956               877.3787               879.8932
 Red. masses --      6.1732                 2.0046                 4.2425
 Frc consts  --      2.5347                 0.9092                 1.9352
 IR Inten    --     18.9623                16.9684                 2.3440

                     31                     32                     33
                      A                      A                      A
 Frequencies --    882.2291               962.5354               967.2024
 Red. masses --      1.3789                 4.3380                 1.3221
 Frc consts  --      0.6324                 2.3679                 0.7287
 IR Inten    --      1.0567                36.8559                 0.1593

                     34                     35                     36
                      A                      A                      A
 Frequencies --    970.3182              1014.1234              1017.4993
 Red. masses --      1.3603                 1.3037                 1.3069
 Frc consts  --      0.7546                 0.7899                 0.7972
 IR Inten    --      1.4712                 0.0166                 0.3616

                     37                     38                     39
                      A                      A                      A
 Frequencies --   1040.9862              1056.6556              1087.6968
 Red. masses --      2.1462                 2.0648                 3.5399
 Frc consts  --      1.3703                 1.3583                 2.4675
 IR Inten    --     12.8143                12.6250                25.1998

                     40                     41                     42
                      A                      A                      A
 Frequencies --   1124.6814              1158.2849              1161.5902
 Red. masses --      2.0470                 1.3636                 1.1968
 Frc consts  --      1.5255                 1.0779                 0.9514
 IR Inten    --     71.0603                 0.5389                74.5398

                     43                     44                     45
                      A                      A                      A
 Frequencies --   1182.1167              1195.3771              1249.1533
 Red. masses --      1.1466                 1.2393                 1.9833
 Frc consts  --      0.9440                 1.0433                 1.8233
 IR Inten    --     17.3171                16.1548                 7.2874

                     46                     47                     48
                      A                      A                      A
 Frequencies --   1288.7650              1301.0677              1360.9015
 Red. masses --      1.6751                 2.5725                 2.8337
 Frc consts  --      1.6392                 2.5657                 3.0921
 IR Inten    --     22.4893               161.4539                24.2454

                     49                     50                     51
                      A                      A                      A
 Frequencies --   1387.4390              1395.5882              1416.7038
 Red. masses --      5.6528                 6.2118                 2.2906
 Frc consts  --      6.4112                 7.1283                 2.7087
 IR Inten    --    119.9362                32.1087                 7.2446

                     52                     53                     54
                      A                      A                      A
 Frequencies --   1492.5453              1506.6055              1524.3790
 Red. masses --      2.7514                 2.8591                 3.2191
 Frc consts  --      3.6112                 3.8236                 4.4072
 IR Inten    --     25.8056               402.4742                86.5146

                     55                     56                     57
                      A                      A                      A
 Frequencies --   1555.1519              1600.6553              1642.4763
 Red. masses --      4.4244                 6.6067                 7.1323
 Frc consts  --      6.3045                 9.9732                11.3365
 IR Inten    --   1721.2984               128.4702               159.9113

                     58                     59                     60
                      A                      A                      A
 Frequencies --   1680.0327              1682.8675              1717.7651
 Red. masses --      7.3413                 7.2023                 7.4578
 Frc consts  --     12.2083                12.0177                12.9655
 IR Inten    --      1.6850               125.1114               373.0052

                     61                     62                     63
                      A                      A                      A
 Frequencies --   3183.6234              3194.9163              3217.8593
 Red. masses --      1.0889                 1.0878                 1.0863
 Frc consts  --      6.5028                 6.5424                 6.6276
 IR Inten    --      3.7775                14.6714                 1.2843

                     64                     65                     66
                      A                      A                      A
 Frequencies --   3220.1682              3228.1417              3232.9945
 Red. masses --      1.0946                 1.0908                 1.0973
 Frc consts  --      6.6875                 6.6972                 6.7574
 IR Inten    --     28.8767                 2.6533                19.4374

                     67                     68                     69
                      A                      A                      A
 Frequencies --   3237.1474              3243.4982              3554.7950
 Red. masses --      1.0961                 1.0999                 1.0825
 Frc consts  --      6.7672                 6.8178                 8.0593
 IR Inten    --      5.2530                11.0759               183.9540

 - Thermochemistry -
 -------------------
 Temperature   298.150 Kelvin.  Pressure   1.00000 Atm.
 Atom     1 has atomic number  6 and mass  12.00000

 Molecular mass:   227.04049 amu.
 Principal axes and moments of inertia in atomic units:
                           1         2         3
     Eigenvalues --  1289.163636360.238507649.40213
           X           -0.70456   0.70965   0.00000
           Y            0.70965   0.70456  -0.00001
           Z            0.00001   0.00001   1.00000
 This molecule is an asymmetric top.
 Rotational symmetry number  1.
 Warning -- assumption of classical behavior for rotation
           may cause significant error
 Rotational temperatures (Kelvin)      0.06719     0.01362     0.01132
 Rotational constants (GHZ):           1.39993     0.28375     0.23593
 Zero-point vibrational energy     497956.8 (Joules/Mol)
                                  119.01452 (Kcal/Mol)
 Warning -- explicit consideration of  18 degrees of freedom as
           vibrations may cause significant error
 Vibrational temperatures:     78.49    91.05   155.23   186.38   281.33
          (Kelvin)            330.23   384.78   441.01   442.83   573.00
                              615.41   642.04   729.26   755.21   771.14
                              792.81   808.42   838.31   903.55   943.79
                             1025.37  1030.91  1065.52  1082.07  1094.95
                             1115.93  1126.95  1201.08  1262.35  1265.97
                             1269.33  1384.87  1391.59  1396.07  1459.10
                             1463.95  1497.75  1520.29  1564.95  1618.17
                             1666.51  1671.27  1700.80  1719.88  1797.25
                             1854.25  1871.95  1958.03  1996.22  2007.94
                             2038.32  2147.44  2167.67  2193.24  2237.52
                             2302.99  2363.16  2417.19  2421.27  2471.48
                             4580.52  4596.77  4629.78  4633.10  4644.58
                             4651.56  4657.53  4666.67  5114.56

 Zero-point correction=                           0.189662 (Hartree/Particle)
 Thermal correction to Energy=                    0.201584
 Thermal correction to Enthalpy=                  0.202528
 Thermal correction to Gibbs Free Energy=         0.150869
 Sum of electronic and zero-point Energies=          -1028.620251
 Sum of electronic and thermal Energies=             -1028.608329
 Sum of electronic and thermal Enthalpies=           -1028.607385
 Sum of electronic and thermal Free Energies=        -1028.659044

                     E (Thermal)             CV                S
                      KCal/Mol        Cal/Mol-Kelvin    Cal/Mol-Kelvin
 Total                  126.496             48.356            108.725
 Electronic               0.000              0.000              0.000
 Translational            0.889              2.981             42.162
 Rotational               0.889              2.981             32.506
 Vibrational            124.718             42.394             34.057
 Vibration     1          0.596              1.976              4.645
 Vibration     2          0.597              1.972              4.352
 Vibration     3          0.606              1.943              3.307
 Vibration     4          0.612              1.924              2.953
 Vibration     5          0.636              1.846              2.175
 Vibration     6          0.652              1.796              1.883
 Vibration     7          0.673              1.733              1.613
 Vibration     8          0.697              1.661              1.381
 Vibration     9          0.698              1.659              1.374
 Vibration    10          0.765              1.474              0.969
 Vibration    11          0.789              1.410              0.866
 Vibration    12          0.805              1.369              0.807
 Vibration    13          0.862              1.235              0.641
 Vibration    14          0.880              1.195              0.599
 Vibration    15          0.891              1.170              0.574
 Vibration    16          0.906              1.137              0.542
 Vibration    17          0.918              1.114              0.520
 Vibration    18          0.939              1.069              0.480

 Optimization completed.
    -- Stationary point found.
 Normal termination of Gaussian 16 at Tue Oct 27 23:27:43 2020.
