 Gaussian 16, Revision C.01,
 Gaussian 16:  ES64L-G16RevC.01  3-Jul-2019

 ----------------------------------------------------------------------
 #p opt=addgic freq wb97xd/cc-pvdz nosymm int=ultrafine scrf=(solvent=C
 arbonTetraChloride)
 ----------------------------------------------------------------------

 ------------------------------------------------
 NM 2D-scan of HBT TD-WB97XD pVDZ in CTC Relaxed.
 ------------------------------------------------
 Symbolic Z-matrix:
 Charge =  0 Multiplicity = 1

 SCF Done:  E(RwB97XD) =  -1028.78463952     A.U. after   16 cycles
 SCF Done:  E(RwB97XD) =  -1028.80675850     A.U. after   13 cycles
 SCF Done:  E(RwB97XD) =  -1028.80693059     A.U. after   13 cycles
 SCF Done:  E(RwB97XD) =  -1028.80831672     A.U. after   12 cycles
 SCF Done:  E(RwB97XD) =  -1028.80843194     A.U. after   11 cycles
 SCF Done:  E(RwB97XD) =  -1028.80843593     A.U. after    9 cycles
 Optimization completed.
    -- Stationary point found.
 Normal termination of Gaussian 16 at Tue Oct 27 21:17:51 2020.

 --------------------------------------------------------------------
 #P Geom=AllCheck Guess=TCheck SCRF=Check GenChk RwB97XD/CC-pVDZ Freq
 --------------------------------------------------------------------

 Structure from the checkpoint file:  "config_10_4.chk"
 ------------------------------------------------
 NM 2D-scan of HBT TD-WB97XD pVDZ in CTC Relaxed.
 ------------------------------------------------
 Charge =  0 Multiplicity = 1

                          Input orientation:
 ---------------------------------------------------------------------
 Center     Atomic      Atomic             Coordinates (Angstroms)
 Number     Number       Type             X           Y           Z
 ---------------------------------------------------------------------
      1          6           0        1.723875   -3.267881   -0.000034
      2          6           0        1.009352   -2.070978   -0.000017
      3          6           0        1.689638   -0.857102   -0.000005
      4          6           0        3.081221   -0.778566   -0.000005
      5          6           0        3.788663   -1.973523   -0.000021
      6          6           0        3.116607   -3.202653   -0.000037
      7          1           0        1.212340   -4.230378   -0.000045
      8          1           0        3.582048    0.189733    0.000005
      9          1           0        4.879059   -1.953100   -0.000022
     10          1           0        3.690790   -4.129789   -0.000050
     11          7           0        0.816255    0.200041   -0.000001
     12         16           0       -0.745597   -1.777791   -0.000006
     13          6           0       -1.409007    1.055849    0.000007
     14          6           0       -2.818393    0.895078    0.000001
     15          6           0       -0.817061    2.398823    0.000025
     16          6           0       -3.668234    1.977049    0.000023
     17          1           0       -3.235180   -0.116442   -0.000020
     18          6           0       -1.766757    3.490703    0.000053
     19          6           0       -3.121287    3.286864    0.000053
     20          1           0       -4.748422    1.830518    0.000018
     21          1           0       -1.342283    4.496161    0.000072
     22          1           0       -3.795354    4.147170    0.000074
     23          6           0       -0.494861   -0.039534   -0.000002
     24          8           0        0.423430    2.612686    0.000009
     25          1           0        1.101989    1.189444    0.000004
 ---------------------------------------------------------------------

 SCF Done:  E(RwB97XD) =  -1028.80843593     A.U. after    1 cycles

 Alpha  occ. eigenvalues --  -89.10231 -19.21767 -14.50973 -10.41489 -10.36822
 Alpha  occ. eigenvalues --  -10.36277 -10.36033 -10.33377 -10.32827 -10.32525
 Alpha  occ. eigenvalues --  -10.32309 -10.31246 -10.30974 -10.30658 -10.29135
 Alpha  occ. eigenvalues --  -10.28568  -8.12192  -6.07082  -6.06696  -6.06201
 Alpha  occ. eigenvalues --   -1.13435  -1.10109  -0.98536  -0.95037  -0.93091
 Alpha  occ. eigenvalues --   -0.89322  -0.86399  -0.84040  -0.81857  -0.75799
 Alpha  occ. eigenvalues --   -0.73060  -0.71642  -0.69282  -0.67963  -0.64603
 Alpha  occ. eigenvalues --   -0.60869  -0.59759  -0.56773  -0.55938  -0.55817
 Alpha  occ. eigenvalues --   -0.54971  -0.53611  -0.52909  -0.50648  -0.49739
 Alpha  occ. eigenvalues --   -0.49093  -0.48153  -0.46689  -0.45583  -0.44829
 Alpha  occ. eigenvalues --   -0.44498  -0.42995  -0.41762  -0.40516  -0.36796
 Alpha  occ. eigenvalues --   -0.33538  -0.32112  -0.31645  -0.26501
 Alpha virt. eigenvalues --   -0.01269   0.03788   0.06178   0.06662   0.09143
 Alpha virt. eigenvalues --    0.11024   0.12619   0.14666   0.15983   0.17371
 Alpha virt. eigenvalues --    0.19053   0.20135   0.21252   0.21651   0.23001

 Mulliken charges:
               1
     1  C    0.010409
     2  C   -0.248608
     3  C    0.263463
     4  C   -0.009846
     5  C    0.012838
     6  C    0.001539
     7  H    0.025681
     8  H    0.032505
     9  H    0.027142
    10  H    0.026038
    11  N   -0.117978
    12  S    0.181243
    13  C   -0.136997
    14  C   -0.003476
    15  C    0.115882
    16  C   -0.032720
    17  H    0.001759
    18  C   -0.019135
    19  C    0.027251
    20  H    0.003090
    21  H    0.001992
    22  H    0.013331
    23  C    0.079279
    24  O   -0.393245
    25  H    0.138564
 Sum of Mulliken charges =  -0.00000

 Dipole moment (field-independent basis, Debye):
    X=              1.6893    Y=             -4.9855    Z=             -0.0000  Tot=              5.2639
 Quadrupole moment (field-independent basis, Debye-Ang):
   XX=            -82.3307   YY=            -94.1396   ZZ=           -104.0534
   XY=             -6.9966   XZ=             -0.0001   YZ=              0.0003

  Exact polarizability:     287.359     -85.667     284.613      -0.001       0.003      63.006
 Approx polarizability:     267.409     -32.985     256.136      -0.001       0.002      82.066

                      1                      2                      3
                      A                      A                      A
 Frequencies --     45.1989                65.1504               115.6791
 Red. masses --      4.8663                 6.3349                 5.6678
 Frc consts  --      0.0059                 0.0158                 0.0447
 IR Inten    --      0.0781                 2.6031                 1.1576

                      4                      5                      6
                      A                      A                      A
 Frequencies --    134.0753               196.4054               234.8025
 Red. masses --      5.1942                 5.9365                 6.0205
 Frc consts  --      0.0550                 0.1349                 0.1956
 IR Inten    --      0.9751                 0.0004                 0.7253

                      7                      8                      9
                      A                      A                      A
 Frequencies --    268.3005               308.2069               326.9941
 Red. masses --      7.4677                 5.3457                 6.2939
 Frc consts  --      0.3167                 0.2992                 0.3965
 IR Inten    --      4.6429                 1.2923                 7.4349

                     10                     11                     12
                      A                      A                      A
 Frequencies --    401.1452               430.0274               447.5800
 Red. masses --     10.6434                 3.2496                 3.5917
 Frc consts  --      1.0091                 0.3541                 0.4239
 IR Inten    --      4.5274                 0.5735                10.4803

                     13                     14                     15
                      A                      A                      A
 Frequencies --    508.1259               531.1273               540.9096
 Red. masses --      8.4642                 2.8604                 8.7559
 Frc consts  --      1.2876                 0.4754                 1.5094
 IR Inten    --      8.5709                 6.0524                 8.1197

                     16                     17                     18
                      A                      A                      A
 Frequencies --    562.1544               562.6009               586.9324
 Red. masses --      3.7308                 6.7559                 6.9733
 Frc consts  --      0.6946                 1.2599                 1.4153
 IR Inten    --      0.0041                 0.9082                37.7152

                     19                     20                     21
                      A                      A                      A
 Frequencies --    636.3905               656.4181               705.0606
 Red. masses --      5.7232                 5.6848                 6.4221
 Frc consts  --      1.3656                 1.4432                 1.8810
 IR Inten    --      0.2938                 4.4257                31.7793

                     22                     23                     24
                      A                      A                      A
 Frequencies --    737.4477               751.1535               761.3820
 Red. masses --      8.3932                 2.6322                 1.5026
 Frc consts  --      2.6893                 0.8750                 0.5132
 IR Inten    --     57.0834                 9.1544                50.6867

                     25                     26                     27
                      A                      A                      A
 Frequencies --    773.9846               777.1017               833.4382
 Red. masses --      2.0841                 1.6031                 5.9080
 Frc consts  --      0.7356                 0.5704                 2.4179
 IR Inten    --     27.1718                27.5665                20.7439

                     28                     29                     30
                      A                      A                      A
 Frequencies --    855.9398               880.4591               883.8389
 Red. masses --      1.1360                 1.7916                 1.4459
 Frc consts  --      0.4904                 0.8183                 0.6655
 IR Inten    --     48.9810                21.7981                21.6437

                     31                     32                     33
                      A                      A                      A
 Frequencies --    884.5640               958.1131               968.3847
 Red. masses --      4.0769                 4.7894                 1.3258
 Frc consts  --      1.8795                 2.5904                 0.7325
 IR Inten    --      4.0454                45.2230                 0.2641

                     34                     35                     36
                      A                      A                      A
 Frequencies --    972.3122              1015.2383              1016.1848
 Red. masses --      1.3575                 1.3033                 1.3036
 Frc consts  --      0.7561                 0.7915                 0.7931
 IR Inten    --      1.5754                 0.0207                 0.4074

                     37                     38                     39
                      A                      A                      A
 Frequencies --   1045.0225              1055.3087              1080.3347
 Red. masses --      2.1806                 2.0923                 3.8187
 Frc consts  --      1.4031                 1.3729                 2.6259
 IR Inten    --     11.5368                11.7666                28.4457

                     40                     41                     42
                      A                      A                      A
 Frequencies --   1120.0403              1153.7896              1159.4539
 Red. masses --      2.2058                 1.3281                 1.1949
 Frc consts  --      1.6303                 1.0417                 0.9464
 IR Inten    --    132.1075                 6.6311                68.2856

                     43                     44                     45
                      A                      A                      A
 Frequencies --   1183.0683              1195.8114              1263.3672
 Red. masses --      1.1442                 1.2683                 1.8381
 Frc consts  --      0.9435                 1.0685                 1.7285
 IR Inten    --      9.1420                20.9352                15.0789

                     46                     47                     48
                      A                      A                      A
 Frequencies --   1289.7140              1313.4469              1369.5958
 Red. masses --      1.5197                 2.7608                 2.9543
 Frc consts  --      1.4893                 2.8061                 3.2650
 IR Inten    --      4.1936               115.7431                70.6222

                     49                     50                     51
                      A                      A                      A
 Frequencies --   1382.3437              1391.3991              1419.4824
 Red. masses --      7.0578                 5.2326                 2.4011
 Frc consts  --      7.9460                 5.9686                 2.8505
 IR Inten    --     39.6411                73.3137                20.0294

                     52                     53                     54
                      A                      A                      A
 Frequencies --   1493.5186              1506.4769              1527.0956
 Red. masses --      2.6899                 2.8111                 3.2254
 Frc consts  --      3.5351                 3.7589                 4.4316
 IR Inten    --     31.0375               351.2726               187.0837

                     55                     56                     57
                      A                      A                      A
 Frequencies --   1568.5975              1607.9397              1624.4034
 Red. masses --      4.3574                 5.2308                 7.3657
 Frc consts  --      6.3168                 7.9682                11.4513
 IR Inten    --   1039.6872               394.6773               256.7780

                     58                     59                     60
                      A                      A                      A
 Frequencies --   1678.9070              1685.6728              1713.6026
 Red. masses --      7.2215                 7.1927                 6.4814
 Frc consts  --     11.9931                12.0417                11.2135
 IR Inten    --      1.8974               219.9017               190.4421

                     61                     62                     63
                      A                      A                      A
 Frequencies --   3178.0978              3192.0632              3212.2389
 Red. masses --      1.0896                 1.0881                 1.0921
 Frc consts  --      6.4841                 6.5321                 6.6391
 IR Inten    --      6.4010                19.6478               362.7521

                     64                     65                     66
                      A                      A                      A
 Frequencies --   3217.5062              3219.7792              3227.6855
 Red. masses --      1.0865                 1.0942                 1.0907
 Frc consts  --      6.6272                 6.6837                 6.6949
 IR Inten    --      2.3766                24.2818                 2.2722

                     67                     68                     69
                      A                      A                      A
 Frequencies --   3230.9787              3236.1901              3243.2745
 Red. masses --      1.0971                 1.0965                 1.0998
 Frc consts  --      6.7477                 6.7661                 6.8163
 IR Inten    --     19.8519                 4.3854                10.5253

 - Thermochemistry -
 -------------------
 Temperature   298.150 Kelvin.  Pressure   1.00000 Atm.
 Atom     1 has atomic number  6 and mass  12.00000

 Molecular mass:   227.04049 amu.
 Principal axes and moments of inertia in atomic units:
                           1         2         3
     Eigenvalues --  1315.031076314.619367629.65043
           X           -0.70482   0.70939   0.00000
           Y            0.70939   0.70482  -0.00001
           Z            0.00001   0.00000   1.00000
 This molecule is an asymmetric top.
 Rotational symmetry number  1.
 Warning -- assumption of classical behavior for rotation
           may cause significant error
 Rotational temperatures (Kelvin)      0.06586     0.01372     0.01135
 Rotational constants (GHZ):           1.37239     0.28580     0.23654
 Zero-point vibrational energy     497162.2 (Joules/Mol)
                                  118.82463 (Kcal/Mol)
 Warning -- explicit consideration of  18 degrees of freedom as
           vibrations may cause significant error
 Vibrational temperatures:     65.03    93.74   166.44   192.90   282.58
          (Kelvin)            337.83   386.02   443.44   470.47   577.16
                              618.71   643.97   731.08   764.17   778.25
                              808.81   809.46   844.46   915.62   944.44
                             1014.43  1061.02  1080.74  1095.46  1113.59
                             1118.08  1199.13  1231.51  1266.78  1271.65
                             1272.69  1378.51  1393.29  1398.94  1460.70
                             1462.06  1503.55  1518.35  1554.36  1611.49
                             1660.05  1668.20  1702.17  1720.51  1817.70
                             1855.61  1889.76  1970.54  1988.88  2001.91
                             2042.32  2148.84  2167.48  2197.15  2256.86
                             2313.47  2337.15  2415.57  2425.31  2465.49
                             4572.57  4592.67  4621.70  4629.27  4632.54
                             4643.92  4648.66  4656.16  4666.35

 Zero-point correction=                           0.189359 (Hartree/Particle)
 Thermal correction to Energy=                    0.201173
 Thermal correction to Enthalpy=                  0.202117
 Thermal correction to Gibbs Free Energy=         0.150572
 Sum of electronic and zero-point Energies=          -1028.619077
 Sum of electronic and thermal Energies=             -1028.607263
 Sum of electronic and thermal Enthalpies=           -1028.606319
 Sum of electronic and thermal Free Energies=        -1028.657864

                     E (Thermal)             CV                S
                      KCal/Mol        Cal/Mol-Kelvin    Cal/Mol-Kelvin
 Total                  126.238             47.985            108.484
 Electronic               0.000              0.000              0.000
 Translational            0.889              2.981             42.162
 Rotational               0.889              2.981             32.516
 Vibrational            124.460             42.024             33.806
 Vibration     1          0.595              1.979              5.017
 Vibration     2          0.597              1.971              4.295
 Vibration     3          0.608              1.936              3.171
 Vibration     4          0.613              1.919              2.887
 Vibration     5          0.636              1.845              2.167
 Vibration     6          0.655              1.788              1.842
 Vibration     7          0.673              1.731              1.607
 Vibration     8          0.698              1.658              1.372
 Vibration     9          0.711              1.622              1.275
 Vibration    10          0.767              1.468              0.958
 Vibration    11          0.791              1.405              0.859
 Vibration    12          0.807              1.366              0.803
 Vibration    13          0.863              1.232              0.638
 Vibration    14          0.886              1.181              0.585
 Vibration    15          0.896              1.160              0.563
 Vibration    16          0.918              1.113              0.520
 Vibration    17          0.918              1.112              0.519
 Vibration    18          0.944              1.060              0.473

 Optimization completed.
    -- Stationary point found.
 Normal termination of Gaussian 16 at Tue Oct 27 21:23:58 2020.
